6
# CELL(abcABC):  459.05226   459.05226   459.05226    90.00000    90.00000    90.00000  Step:           0  Bead:       0 x_centroid{angstrom}  cell{atomic_unit}
       C -3.39887e-01 -1.13437e-01  8.06659e-02
       O  8.43483e-01  2.62672e-01 -1.81512e-01
       H -7.35799e-02  8.16467e-01 -6.61432e-01
       H -4.30016e-01 -9.65701e-01  7.62278e-01
       L  6.13458e+01  0.00000e+00  0.00000e+00
       L  0.00000e+00  8.59064e+00  0.00000e+00
6
# CELL(abcABC):  459.05226   459.05226   459.05226    90.00000    90.00000    90.00000  Step:           1  Bead:       0 x_centroid{angstrom}  cell{atomic_unit}
       C -3.41413e-01 -1.13766e-01  8.17243e-02
       O  8.44270e-01  2.63754e-01 -1.81257e-01
       H -7.49616e-02  7.96858e-01 -6.70329e-01
       H -4.23138e-01 -9.59146e-01  7.54268e-01
       L  6.14714e+01  8.29538e-02  3.38921e-01
       L  2.43046e-01  8.11671e+00  1.05252e-01
6
# CELL(abcABC):  459.05226   459.05226   459.05226    90.00000    90.00000    90.00000  Step:           2  Bead:       0 x_centroid{angstrom}  cell{atomic_unit}
       C -3.43068e-01 -1.14480e-01  8.28505e-02
       O  8.45216e-01  2.65032e-01 -1.81102e-01
       H -7.62260e-02  7.78654e-01 -6.79237e-01
       H -4.17088e-01 -9.52487e-01  7.47071e-01
       L  6.10137e+01  1.92106e-01  6.94521e-01
       L  5.27168e-01  7.59729e+00  1.68533e-01
6
# CELL(abcABC):  459.05226   459.05226   459.05226    90.00000    90.00000    90.00000  Step:           3  Bead:       0 x_centroid{angstrom}  cell{atomic_unit}
       C -3.44478e-01 -1.14797e-01  8.39931e-02
       O  8.46153e-01  2.66080e-01 -1.80948e-01
       H -7.93528e-02  7.61362e-01 -6.88921e-01
       H -4.11595e-01 -9.47808e-01  7.40436e-01
       L  5.99776e+01  3.25813e-01  1.06214e+00
       L  7.92982e-01  6.99692e+00  2.61288e-01
6
# CELL(abcABC):  459.05226   459.05226   459.05226    90.00000    90.00000    90.00000  Step:           4  Bead:       0 x_centroid{angstrom}  cell{atomic_unit}
       C -3.45912e-01 -1.15036e-01  8.50312e-02
       O  8.47121e-01  2.67072e-01 -1.80702e-01
       H -8.15418e-02  7.44992e-01 -6.99094e-01
       H -4.06971e-01 -9.44041e-01  7.34093e-01
       L  5.84161e+01  4.68908e-01  1.37876e+00
       L  1.02860e+00  6.31588e+00  3.84304e-01
6
# CELL(abcABC):  459.05226   459.05226   459.05226    90.00000    90.00000    90.00000  Step:           5  Bead:       0 x_centroid{angstrom}  cell{atomic_unit}
       C -3.46959e-01 -1.14931e-01  8.60788e-02
       O  8.47927e-01  2.67886e-01 -1.80642e-01
       H -8.53077e-02  7.30486e-01 -7.09246e-01
       H -4.02538e-01 -9.43418e-01  7.30533e-01
       L  5.63776e+01  6.25336e-01  1.75005e+00
       L  1.25852e+00  5.61307e+00  5.44711e-01
6
# CELL(abcABC):  459.05226   459.05226   459.05226    90.00000    90.00000    90.00000  Step:           6  Bead:       0 x_centroid{angstrom}  cell{atomic_unit}
       C -3.47449e-01 -1.14445e-01  8.69491e-02
       O  8.48411e-01  2.68524e-01 -1.80634e-01
       H -8.97332e-02  7.18466e-01 -7.19199e-01
       H -3.98715e-01 -9.47003e-01  7.29729e-01
       L  5.38496e+01  7.95156e-01  2.10134e+00
       L  1.49916e+00  4.89377e+00  6.54275e-01
6
# CELL(abcABC):  459.05226   459.05226   459.05226    90.00000    90.00000    90.00000  Step:           7  Bead:       0 x_centroid{angstrom}  cell{atomic_unit}
       C -3.47503e-01 -1.13695e-01  8.75525e-02
       O  8.48676e-01  2.69038e-01 -1.80503e-01
       H -9.45458e-02  7.07774e-01 -7.30063e-01
       H -3.95922e-01 -9.53077e-01  7.31097e-01
       L  5.07945e+01  9.84368e-01  2.41149e+00
       L  1.71857e+00  4.10273e+00  7.49853e-01
6
# CELL(abcABC):  459.05226   459.05226   459.05226    90.00000    90.00000    90.00000  Step:           8  Bead:       0 x_centroid{angstrom}  cell{atomic_unit}
       C -3.47216e-01 -1.12777e-01  8.82320e-02
       O  8.48866e-01  2.69462e-01 -1.80419e-01
       H -1.01236e-01  6.98418e-01 -7.42257e-01
       H -3.93834e-01 -9.61076e-01  7.33676e-01
       L  4.72908e+01  1.20129e+00  2.68946e+00
       L  1.86667e+00  3.28304e+00  8.09125e-01
6
# CELL(abcABC):  459.05226   459.05226   459.05226    90.00000    90.00000    90.00000  Step:           9  Bead:       0 x_centroid{angstrom}  cell{atomic_unit}
       C -3.46573e-01 -1.11702e-01  8.85906e-02
       O  8.48951e-01  2.69861e-01 -1.80000e-01
       H -1.10253e-01  6.89010e-01 -7.55932e-01
       H -3.91797e-01 -9.70468e-01  7.36222e-01
       L  4.33943e+01  1.35234e+00  3.03738e+00
       L  2.01391e+00  2.50305e+00  8.45727e-01
6
# CELL(abcABC):  459.05226   459.05226   459.05226    90.00000    90.00000    90.00000  Step:          10  Bead:       0 x_centroid{angstrom}  cell{atomic_unit}
       C -3.45824e-01 -1.10587e-01  8.84758e-02
       O  8.49120e-01  2.70316e-01 -1.79311e-01
       H -1.21035e-01  6.79081e-01 -7.69116e-01
       H -3.90427e-01 -9.80719e-01  7.39675e-01
       L  3.92127e+01  1.51091e+00  3.32559e+00
       L  2.17561e+00  1.74311e+00  8.50593e-01
6
# CELL(abcABC):  459.05226   459.05226   459.05226    90.00000    90.00000    90.00000  Step:          11  Bead:       0 x_centroid{angstrom}  cell{atomic_unit}
       C -3.44625e-01 -1.09053e-01  8.82061e-02
       O  8.49221e-01  2.70498e-01 -1.78485e-01
       H -1.34608e-01  6.68799e-01 -7.82918e-01
       H -3.90414e-01 -9.91257e-01  7.43433e-01
       L  3.47741e+01  1.64492e+00  3.58826e+00
       L  2.32150e+00  9.76687e-01  8.78889e-01
6
# CELL(abcABC):  459.05226   459.05226   459.05226    90.00000    90.00000    90.00000  Step:          12  Bead:       0 x_centroid{angstrom}  cell{atomic_unit}
       C -3.42777e-01 -1.07323e-01  8.74924e-02
       O  8.49188e-01  2.70476e-01 -1.77344e-01
       H -1.51342e-01  6.58900e-01 -7.96497e-01
       H -3.92695e-01 -1.00131e+00  7.47233e-01
       L  3.00941e+01  1.85783e+00  3.83627e+00
       L  2.46472e+00  1.87850e-01  9.38056e-01
6
# CELL(abcABC):  459.05226   459.05226   459.05226    90.00000    90.00000    90.00000  Step:          13  Bead:       0 x_centroid{angstrom}  cell{atomic_unit}
       C -3.40838e-01 -1.05531e-01  8.65875e-02
       O  8.49259e-01  2.70411e-01 -1.75994e-01
       H -1.70063e-01  6.47222e-01 -8.10066e-01
       H -3.95577e-01 -1.00963e+00  7.50035e-01
       L  2.51612e+01  2.04624e+00  4.07362e+00
       L  2.53219e+00 -6.24265e-01  9.29377e-01
6
# CELL(abcABC):  459.05226   459.05226   459.05226    90.00000    90.00000    90.00000  Step:          14  Bead:       0 x_centroid{angstrom}  cell{atomic_unit}
       C -3.38024e-01 -1.03849e-01  8.53022e-02
       O  8.49229e-01  2.70219e-01 -1.74367e-01
       H -1.95785e-01  6.36030e-01 -8.22374e-01
       H -4.00103e-01 -1.01509e+00  7.51721e-01
       L  1.99467e+01  2.22253e+00  4.28097e+00
       L  2.59046e+00 -1.41921e+00  9.22227e-01
6
# CELL(abcABC):  459.05226   459.05226   459.05226    90.00000    90.00000    90.00000  Step:          15  Bead:       0 x_centroid{angstrom}  cell{atomic_unit}
       C -3.34725e-01 -1.02128e-01  8.36927e-02
       O  8.49297e-01  2.69866e-01 -1.72511e-01
       H -2.27619e-01  6.24394e-01 -8.32806e-01
       H -4.05705e-01 -1.01802e+00  7.51834e-01
       L  1.45160e+01  2.35416e+00  4.39511e+00
       L  2.60171e+00 -2.16431e+00  8.67654e-01
6
# CELL(abcABC):  459.05226   459.05226   459.05226    90.00000    90.00000    90.00000  Step:          16  Bead:       0 x_centroid{angstrom}  cell{atomic_unit}
       C -3.30637e-01 -1.00082e-01  8.16911e-02
       O  8.49463e-01  2.69302e-01 -1.70341e-01
       H -2.69001e-01  6.09066e-01 -8.42825e-01
       H -4.12684e-01 -1.01776e+00  7.51240e-01
       L  9.03323e+00  2.44811e+00  4.53243e+00
       L  2.60979e+00 -2.89431e+00  7.84169e-01
6
# CELL(abcABC):  459.05226   459.05226   459.05226    90.00000    90.00000    90.00000  Step:          17  Bead:       0 x_centroid{angstrom}  cell{atomic_unit}
       C -3.25652e-01 -9.77067e-02  7.92191e-02
       O  8.49641e-01  2.68393e-01 -1.67790e-01
       H -3.20162e-01  5.90816e-01 -8.51756e-01
       H -4.20708e-01 -1.01304e+00  7.49112e-01
       L  3.44753e+00  2.49790e+00  4.62424e+00
       L  2.59650e+00 -3.58714e+00  7.09319e-01
6
# CELL(abcABC):  459.05226   459.05226   459.05226    90.00000    90.00000    90.00000  Step:          18  Bead:       0 x_centroid{angstrom}  cell{atomic_unit}
       C -3.19803e-01 -9.51156e-02  7.59297e-02
       O  8.50040e-01  2.67155e-01 -1.64755e-01
       H -3.82569e-01  5.71684e-01 -8.57585e-01
       H -4.31280e-01 -1.00480e+00  7.46024e-01
       L -2.13286e+00  2.58402e+00  4.62931e+00
       L  2.56783e+00 -4.28840e+00  5.91636e-01
6
# CELL(abcABC):  459.05226   459.05226   459.05226    90.00000    90.00000    90.00000  Step:          19  Bead:       0 x_centroid{angstrom}  cell{atomic_unit}
       C -3.12956e-01 -9.25220e-02  7.20481e-02
       O  8.50609e-01  2.65908e-01 -1.61278e-01
       H -4.56594e-01  5.49836e-01 -8.60801e-01
       H -4.44777e-01 -9.93741e-01  7.40403e-01
       L -7.71558e+00  2.63596e+00  4.60959e+00
       L  2.46430e+00 -4.95312e+00  4.41889e-01
6
# CELL(abcABC):  459.05226   459.05226   459.05226    90.00000    90.00000    90.00000  Step:          20  Bead:       0 x_centroid{angstrom}  cell{atomic_unit}
       C -3.05038e-01 -8.94126e-02  6.72299e-02
       O  8.51313e-01  2.64232e-01 -1.57216e-01
       H -5.43463e-01  5.25178e-01 -8.60300e-01
       H -4.60401e-01 -9.79203e-01  7.32960e-01
       L -1.31892e+01  2.68237e+00  4.57961e+00
       L  2.35330e+00 -5.58748e+00  2.54455e-01
6
# CELL(abcABC):  459.05226   459.05226   459.05226    90.00000    90.00000    90.00000  Step:          21  Bead:       0 x_centroid{angstrom}  cell{atomic_unit}
       C -2.96095e-01 -8.62410e-02  6.16871e-02
       O  8.51970e-01  2.62492e-01 -1.52839e-01
       H -6.40721e-01  4.97105e-01 -8.54958e-01
       H -4.77169e-01 -9.60977e-01  7.24314e-01
       L -1.85363e+01  2.69933e+00  4.53269e+00
       L  2.24444e+00 -6.20063e+00  6.76890e-02
6
# CELL(abcABC):  459.05226   459.05226   459.05226    90.00000    90.00000    90.00000  Step:          22  Bead:       0 x_centroid{angstrom}  cell{atomic_unit}
       C -2.86152e-01 -8.31404e-02  5.53449e-02
       O  8.52598e-01  2.60877e-01 -1.48066e-01
       H -7.47617e-01  4.63965e-01 -8.46495e-01
       H -4.95856e-01 -9.38807e-01  7.15789e-01
       L -2.36417e+01  2.68442e+00  4.45002e+00
       L  2.09953e+00 -6.80867e+00 -9.69900e-02
6
# CELL(abcABC):  459.05226   459.05226   459.05226    90.00000    90.00000    90.00000  Step:          23  Bead:       0 x_centroid{angstrom}  cell{atomic_unit}
       C -2.75532e-01 -7.96433e-02  4.83161e-02
       O  8.53269e-01  2.59144e-01 -1.43231e-01
       H -8.60884e-01  4.26342e-01 -8.31999e-01
       H -5.17083e-01 -9.15044e-01  7.08444e-01
       L -2.84550e+01  2.65900e+00  4.33828e+00
       L  1.92056e+00 -7.35166e+00 -2.51904e-01
6
# CELL(abcABC):  459.05226   459.05226   459.05226    90.00000    90.00000    90.00000  Step:          24  Bead:       0 x_centroid{angstrom}  cell{atomic_unit}
       C -2.64660e-01 -7.56514e-02  4.05001e-02
       O  8.53896e-01  2.57229e-01 -1.38169e-01
       H -9.76436e-01  3.83020e-01 -8.12358e-01
       H -5.38433e-01 -8.88626e-01  7.01741e-01
       L -3.29986e+01  2.64673e+00  4.20258e+00
       L  1.70420e+00 -7.82485e+00 -3.88376e-01
6
# CELL(abcABC):  459.05226   459.05226   459.05226    90.00000    90.00000    90.00000  Step:          25  Bead:       0 x_centroid{angstrom}  cell{atomic_unit}
       C -2.54166e-01 -7.08819e-02  3.18573e-02
       O  8.54834e-01  2.54932e-01 -1.32992e-01
       H -1.09172e+00  3.36433e-01 -7.86394e-01
       H -5.60760e-01 -8.62116e-01  6.96731e-01
       L -3.71477e+01  2.52813e+00  4.05988e+00
       L  1.59280e+00 -8.24601e+00 -5.09091e-01
6
# CELL(abcABC):  459.05226   459.05226   459.05226    90.00000    90.00000    90.00000  Step:          26  Bead:       0 x_centroid{angstrom}  cell{atomic_unit}
       C -2.44213e-01 -6.60355e-02  2.23968e-02
       O  8.55963e-01  2.52724e-01 -1.27752e-01
       H -1.20213e+00  2.87857e-01 -7.55459e-01
       H -5.84706e-01 -8.35944e-01  6.95542e-01
       L -4.09707e+01  2.31365e+00  3.83774e+00
       L  1.42768e+00 -8.57506e+00 -6.42601e-01
6
# CELL(abcABC):  459.05226   459.05226   459.05226    90.00000    90.00000    90.00000  Step:          27  Bead:       0 x_centroid{angstrom}  cell{atomic_unit}
       C -2.35298e-01 -6.13730e-02  1.25826e-02
       O  8.57411e-01  2.50740e-01 -1.22480e-01
       H -1.30554e+00  2.38414e-01 -7.21023e-01
       H -6.08571e-01 -8.10318e-01  6.94550e-01
       L -4.43786e+01  2.05952e+00  3.59645e+00
       L  1.27427e+00 -8.78667e+00 -7.29762e-01
6
# CELL(abcABC):  459.05226   459.05226   459.05226    90.00000    90.00000    90.00000  Step:          28  Bead:       0 x_centroid{angstrom}  cell{atomic_unit}
       C -2.27883e-01 -5.69477e-02  2.34378e-03
       O  8.59293e-01  2.49023e-01 -1.17339e-01
       H -1.39985e+00  1.89614e-01 -6.81418e-01
       H -6.30787e-01 -7.86752e-01  6.95549e-01
       L -4.73725e+01  1.72288e+00  3.30848e+00
       L  1.13397e+00 -8.90593e+00 -8.20918e-01
6
# CELL(abcABC):  459.05226   459.05226   459.05226    90.00000    90.00000    90.00000  Step:          29  Bead:       0 x_centroid{angstrom}  cell{atomic_unit}
       C -2.22109e-01 -5.29861e-02 -8.11716e-03
       O  8.61657e-01  2.47606e-01 -1.12336e-01
       H -1.48354e+00  1.42169e-01 -6.39749e-01
       H -6.51982e-01 -7.63829e-01  6.99334e-01
       L -4.99215e+01  1.42058e+00  2.96642e+00
       L  9.99545e-01 -8.95358e+00 -8.61106e-01
6
# CELL(abcABC):  459.05226   459.05226   459.05226    90.00000    90.00000    90.00000  Step:          30  Bead:       0 x_centroid{angstrom}  cell{atomic_unit}
       C -2.18247e-01 -4.93980e-02 -1.85866e-02
       O  8.64672e-01  2.46349e-01 -1.07588e-01
       H -1.55728e+00  9.74307e-02 -5.96834e-01
       H -6.70893e-01 -7.41753e-01  7.06034e-01
       L -5.19821e+01  1.09278e+00  2.57453e+00
       L  8.27508e-01 -8.88859e+00 -8.96757e-01
6
# CELL(abcABC):  459.05226   459.05226   459.05226    90.00000    90.00000    90.00000  Step:          31  Bead:       0 x_centroid{angstrom}  cell{atomic_unit}
       C -2.16338e-01 -4.66595e-02 -2.87823e-02
       O  8.68235e-01  2.45491e-01 -1.03032e-01
       H -1.62027e+00  5.67347e-02 -5.55411e-01
       H -6.86250e-01 -7.19952e-01  7.14022e-01
       L -5.35631e+01  7.93236e-01  2.15225e+00
       L  6.49194e-01 -8.79193e+00 -9.00603e-01
6
# CELL(abcABC):  459.05226   459.05226   459.05226    90.00000    90.00000    90.00000  Step:          32  Bead:       0 x_centroid{angstrom}  cell{atomic_unit}
       C -2.16353e-01 -4.46754e-02 -3.85853e-02
       O  8.72237e-01  2.44962e-01 -9.87714e-02
       H -1.67230e+00  2.04333e-02 -5.15477e-01
       H -6.96929e-01 -6.98808e-01  7.23486e-01
       L -5.45778e+01  4.73418e-01  1.75337e+00
       L  4.85953e-01 -8.62671e+00 -8.97512e-01
6
# CELL(abcABC):  459.05226   459.05226   459.05226    90.00000    90.00000    90.00000  Step:          33  Bead:       0 x_centroid{angstrom}  cell{atomic_unit}
       C -2.18461e-01 -4.32836e-02 -4.79599e-02
       O  8.76869e-01  2.44644e-01 -9.46074e-02
       H -1.71441e+00 -1.14900e-02 -4.79581e-01
       H -7.02838e-01 -6.78398e-01  7.33411e-01
       L -5.51285e+01  1.88054e-01  1.30932e+00
       L  3.11504e-01 -8.40089e+00 -8.36918e-01
6
# CELL(abcABC):  459.05226   459.05226   459.05226    90.00000    90.00000    90.00000  Step:          34  Bead:       0 x_centroid{angstrom}  cell{atomic_unit}
       C -2.22611e-01 -4.23473e-02 -5.66754e-02
       O  8.81975e-01  2.44460e-01 -9.07363e-02
       H -1.74664e+00 -4.00463e-02 -4.47929e-01
       H -7.02098e-01 -6.58080e-01  7.44397e-01
       L -5.52042e+01 -9.11719e-02  8.58824e-01
       L  2.07474e-01 -8.12489e+00 -8.08966e-01
6
# CELL(abcABC):  459.05226   459.05226   459.05226    90.00000    90.00000    90.00000  Step:          35  Bead:       0 x_centroid{angstrom}  cell{atomic_unit}
       C -2.28217e-01 -4.19054e-02 -6.46930e-02
       O  8.87307e-01  2.44445e-01 -8.71322e-02
       H -1.76983e+00 -6.55458e-02 -4.19944e-01
       H -6.96889e-01 -6.37625e-01  7.54963e-01
       L -5.48061e+01 -3.68547e-01  4.04225e-01
       L  8.48342e-02 -7.80772e+00 -7.63397e-01
6
# CELL(abcABC):  459.05226   459.05226   459.05226    90.00000    90.00000    90.00000  Step:          36  Bead:       0 x_centroid{angstrom}  cell{atomic_unit}
       C -2.35278e-01 -4.22473e-02 -7.18087e-02
       O  8.92781e-01  2.44777e-01 -8.39652e-02
       H -1.78344e+00 -8.66005e-02 -3.96281e-01
       H -6.86442e-01 -6.17822e-01  7.66040e-01
       L -5.39575e+01 -6.68934e-01 -2.20023e-02
       L -2.33162e-02 -7.40595e+00 -7.41250e-01
6
# CELL(abcABC):  459.05226   459.05226   459.05226    90.00000    90.00000    90.00000  Step:          37  Bead:       0 x_centroid{angstrom}  cell{atomic_unit}
       C -2.43467e-01 -4.31635e-02 -7.78512e-02
       O  8.98199e-01  2.45206e-01 -8.13244e-02
       H -1.78711e+00 -1.02189e-01 -3.78293e-01
       H -6.71873e-01 -5.98209e-01  7.78376e-01
       L -5.25787e+01 -1.00603e+00 -4.92028e-01
       L -1.57535e-01 -6.91046e+00 -7.12171e-01
6
# CELL(abcABC):  459.05226   459.05226   459.05226    90.00000    90.00000    90.00000  Step:          38  Bead:       0 x_centroid{angstrom}  cell{atomic_unit}
       C -2.52466e-01 -4.46599e-02 -8.29686e-02
       O  9.03360e-01  2.45784e-01 -7.88924e-02
       H -1.78088e+00 -1.12987e-01 -3.67598e-01
       H -6.53732e-01 -5.78907e-01  7.90248e-01
       L -5.07400e+01 -1.31611e+00 -9.07238e-01
       L -2.76660e-01 -6.33474e+00 -6.47130e-01
6
# CELL(abcABC):  459.05226   459.05226   459.05226    90.00000    90.00000    90.00000  Step:          39  Bead:       0 x_centroid{angstrom}  cell{atomic_unit}
       C -2.62180e-01 -4.63242e-02 -8.71125e-02
       O  9.08224e-01  2.46236e-01 -7.67736e-02
       H -1.76552e+00 -1.20002e-01 -3.64503e-01
       H -6.31746e-01 -5.59475e-01  8.03044e-01
       L -4.84556e+01 -1.53987e+00 -1.31830e+00
       L -3.52978e-01 -5.65045e+00 -5.04514e-01
6
# CELL(abcABC):  459.05226   459.05226   459.05226    90.00000    90.00000    90.00000  Step:          40  Bead:       0 x_centroid{angstrom}  cell{atomic_unit}
       C -2.72627e-01 -4.83815e-02 -9.01805e-02
       O  9.12729e-01  2.46718e-01 -7.51148e-02
       H -1.73892e+00 -1.22302e-01 -3.66651e-01
       H -6.06757e-01 -5.40602e-01  8.15572e-01
       L -4.57814e+01 -1.72293e+00 -1.73202e+00
       L -4.64449e-01 -4.92956e+00 -3.67555e-01
6
# CELL(abcABC):  459.05226   459.05226   459.05226    90.00000    90.00000    90.00000  Step:          41  Bead:       0 x_centroid{angstrom}  cell{atomic_unit}
       C -2.83348e-01 -5.05492e-02 -9.21620e-02
       O  9.16660e-01  2.47082e-01 -7.39464e-02
       H -1.70247e+00 -1.19551e-01 -3.74769e-01
       H -5.79521e-01 -5.23636e-01  8.28881e-01
       L -4.26294e+01 -1.86744e+00 -2.12760e+00
       L -5.54850e-01 -4.17379e+00 -2.04202e-01
6
# CELL(abcABC):  459.05226   459.05226   459.05226    90.00000    90.00000    90.00000  Step:          42  Bead:       0 x_centroid{angstrom}  cell{atomic_unit}
       C -2.93980e-01 -5.31245e-02 -9.34182e-02
       O  9.19803e-01  2.47471e-01 -7.31272e-02
       H -1.65468e+00 -1.12638e-01 -3.87822e-01
       H -5.52402e-01 -5.06378e-01  8.44038e-01
       L -3.90275e+01 -2.05459e+00 -2.51469e+00
       L -6.72866e-01 -3.37500e+00 -7.20905e-02
6
# CELL(abcABC):  459.05226   459.05226   459.05226    90.00000    90.00000    90.00000  Step:          43  Bead:       0 x_centroid{angstrom}  cell{atomic_unit}
       C -3.04406e-01 -5.57949e-02 -9.35825e-02
       O  9.22174e-01  2.47747e-01 -7.28861e-02
       H -1.59643e+00 -1.01060e-01 -4.05832e-01
       H -5.26103e-01 -4.90907e-01  8.60328e-01
       L -3.51644e+01 -2.16977e+00 -2.90135e+00
       L -7.64777e-01 -2.52961e+00  4.04259e-02
6
# CELL(abcABC):  459.05226   459.05226   459.05226    90.00000    90.00000    90.00000  Step:          44  Bead:       0 x_centroid{angstrom}  cell{atomic_unit}
       C -3.14015e-01 -5.86545e-02 -9.25873e-02
       O  9.23299e-01  2.48031e-01 -7.33057e-02
       H -1.52773e+00 -8.52811e-02 -4.29070e-01
       H -5.00348e-01 -4.77549e-01  8.78493e-01
       L -3.10450e+01 -2.21876e+00 -3.26173e+00
       L -8.61810e-01 -1.70256e+00  1.70157e-01
6
# CELL(abcABC):  459.05226   459.05226   459.05226    90.00000    90.00000    90.00000  Step:          45  Bead:       0 x_centroid{angstrom}  cell{atomic_unit}
       C -3.23053e-01 -6.19275e-02 -9.06916e-02
       O  9.23414e-01  2.48578e-01 -7.42083e-02
       H -1.44970e+00 -6.64460e-02 -4.55688e-01
       H -4.74867e-01 -4.66514e-01  8.96983e-01
       L -2.65939e+01 -2.23310e+00 -3.61604e+00
       L -9.72819e-01 -8.56997e-01  2.79867e-01
6
# CELL(abcABC):  459.05226   459.05226   459.05226    90.00000    90.00000    90.00000  Step:          46  Bead:       0 x_centroid{angstrom}  cell{atomic_unit}
       C -3.31176e-01 -6.51382e-02 -8.80342e-02
       O  9.22521e-01  2.49069e-01 -7.54386e-02
       H -1.36416e+00 -4.55752e-02 -4.87495e-01
       H -4.51963e-01 -4.57414e-01  9.16785e-01
       L -2.18959e+01 -2.16710e+00 -3.93669e+00
       L -1.03905e+00 -1.83810e-02  3.57484e-01
6
# CELL(abcABC):  459.05226   459.05226   459.05226    90.00000    90.00000    90.00000  Step:          47  Bead:       0 x_centroid{angstrom}  cell{atomic_unit}
       C -3.38118e-01 -6.83054e-02 -8.44793e-02
       O  9.20754e-01  2.49377e-01 -7.69718e-02
       H -1.27671e+00 -2.13714e-02 -5.23806e-01
       H -4.31206e-01 -4.49271e-01  9.35212e-01
       L -1.70766e+01 -2.07215e+00 -4.27374e+00
       L -1.15189e+00  8.15080e-01  4.38800e-01
6
# CELL(abcABC):  459.05226   459.05226   459.05226    90.00000    90.00000    90.00000  Step:          48  Bead:       0 x_centroid{angstrom}  cell{atomic_unit}
       C -3.43214e-01 -7.14857e-02 -7.92542e-02
       O  9.17934e-01  2.49643e-01 -7.92143e-02
       H -1.18981e+00  4.75376e-03 -5.67656e-01
       H -4.15232e-01 -4.42214e-01  9.52491e-01
       L -1.21529e+01 -1.97316e+00 -4.56961e+00
       L -1.25973e+00  1.63355e+00  5.59052e-01
6
# CELL(abcABC):  459.05226   459.05226   459.05226    90.00000    90.00000    90.00000  Step:          49  Bead:       0 x_centroid{angstrom}  cell{atomic_unit}
       C -3.45953e-01 -7.44474e-02 -7.22715e-02
       O  9.14154e-01  2.49731e-01 -8.20754e-02
       H -1.11151e+00  3.30154e-02 -6.21079e-01
       H -4.03594e-01 -4.37059e-01  9.68152e-01
       L -7.10558e+00 -1.87117e+00 -4.76851e+00
       L -1.34949e+00  2.41121e+00  7.01837e-01
6
# CELL(abcABC):  459.05226   459.05226   459.05226    90.00000    90.00000    90.00000  Step:          50  Bead:       0 x_centroid{angstrom}  cell{atomic_unit}
       C -3.45854e-01 -7.71889e-02 -6.33549e-02
       O  9.09439e-01  2.49596e-01 -8.53658e-02
       H -1.04733e+00  6.41528e-02 -6.87443e-01
       H -3.96875e-01 -4.33814e-01  9.80497e-01
       L -1.96667e+00 -1.79362e+00 -4.89964e+00
       L -1.40886e+00  3.12111e+00  8.30468e-01
6
# CELL(abcABC):  459.05226   459.05226   459.05226    90.00000    90.00000    90.00000  Step:          51  Bead:       0 x_centroid{angstrom}  cell{atomic_unit}
       C -3.43365e-01 -7.92742e-02 -5.29208e-02
       O  9.04152e-01  2.48932e-01 -8.89286e-02
       H -9.96253e-01  9.63778e-02 -7.66001e-01
       H -3.96421e-01 -4.31049e-01  9.91241e-01
       L  3.15261e+00 -1.77021e+00 -5.00439e+00
       L -1.51609e+00  3.81723e+00  9.97532e-01
6
# CELL(abcABC):  459.05226   459.05226   459.05226    90.00000    90.00000    90.00000  Step:          52  Bead:       0 x_centroid{angstrom}  cell{atomic_unit}
       C -3.38252e-01 -8.09956e-02 -4.12174e-02
       O  8.97714e-01  2.47927e-01 -9.28919e-02
       H -9.53103e-01  1.29659e-01 -8.51411e-01
       H -4.01008e-01 -4.28216e-01  1.00003e+00
       L  8.23541e+00 -1.73041e+00 -5.03996e+00
       L -1.62668e+00  4.41201e+00  1.16406e+00
6
# CELL(abcABC):  459.05226   459.05226   459.05226    90.00000    90.00000    90.00000  Step:          53  Bead:       0 x_centroid{angstrom}  cell{atomic_unit}
       C -3.31054e-01 -8.22556e-02 -2.85085e-02
       O  8.90288e-01  2.46796e-01 -9.73256e-02
       H -9.13715e-01  1.61596e-01 -9.38917e-01
       H -4.10962e-01 -4.27529e-01  1.00638e+00
       L  1.31901e+01 -1.65481e+00 -5.00776e+00
       L -1.67132e+00  4.99201e+00  1.31396e+00
6
# CELL(abcABC):  459.05226   459.05226   459.05226    90.00000    90.00000    90.00000  Step:          54  Bead:       0 x_centroid{angstrom}  cell{atomic_unit}
       C -3.22327e-01 -8.30965e-02 -1.59877e-02
       O  8.82205e-01  2.45555e-01 -1.01744e-01
       H -8.75852e-01  1.91553e-01 -1.02226e+00
       H -4.27098e-01 -4.28152e-01  1.01053e+00
       L  1.80081e+01 -1.52300e+00 -4.93560e+00
       L -1.74362e+00  5.54931e+00  1.46975e+00
6
# CELL(abcABC):  459.05226   459.05226   459.05226    90.00000    90.00000    90.00000  Step:          55  Bead:       0 x_centroid{angstrom}  cell{atomic_unit}
       C -3.12201e-01 -8.33344e-02 -3.78490e-03
       O  8.73501e-01  2.44166e-01 -1.06321e-01
       H -8.37708e-01  2.18304e-01 -1.09721e+00
       H -4.50218e-01 -4.30384e-01  1.01257e+00
       L  2.26254e+01 -1.34609e+00 -4.82612e+00
       L -1.81542e+00  6.05440e+00  1.63206e+00
6
# CELL(abcABC):  459.05226   459.05226   459.05226    90.00000    90.00000    90.00000  Step:          56  Bead:       0 x_centroid{angstrom}  cell{atomic_unit}
       C -3.00740e-01 -8.25947e-02  7.71729e-03
       O  8.64228e-01  2.42510e-01 -1.10855e-01
       H -8.00372e-01  2.39896e-01 -1.16210e+00
       H -4.79247e-01 -4.34871e-01  1.01219e+00
       L  2.70080e+01 -1.13577e+00 -4.67459e+00
       L -1.93700e+00  6.51210e+00  1.81378e+00
6
# CELL(abcABC):  459.05226   459.05226   459.05226    90.00000    90.00000    90.00000  Step:          57  Bead:       0 x_centroid{angstrom}  cell{atomic_unit}
       C -2.88649e-01 -8.14876e-02  1.79455e-02
       O  8.54873e-01  2.40890e-01 -1.15145e-01
       H -7.63941e-01  2.57529e-01 -1.21537e+00
       H -5.13462e-01 -4.40288e-01  1.01149e+00
       L  3.11680e+01 -9.79507e-01 -4.48180e+00
       L -2.05643e+00  6.93448e+00  1.95689e+00
6
# CELL(abcABC):  459.05226   459.05226   459.05226    90.00000    90.00000    90.00000  Step:          58  Bead:       0 x_centroid{angstrom}  cell{atomic_unit}
       C -2.75857e-01 -7.95330e-02  2.69396e-02
       O  8.45470e-01  2.39133e-01 -1.19229e-01
       H -7.29817e-01  2.69518e-01 -1.25669e+00
       H -5.52790e-01 -4.47970e-01  1.01029e+00
       L  3.50376e+01 -8.31061e-01 -4.28757e+00
       L -2.19205e+00  7.29987e+00  2.09333e+00
6
# CELL(abcABC):  459.05226   459.05226   459.05226    90.00000    90.00000    90.00000  Step:          59  Bead:       0 x_centroid{angstrom}  cell{atomic_unit}
       C -2.63507e-01 -7.72887e-02  3.47023e-02
       O  8.36810e-01  2.37442e-01 -1.22946e-01
       H -6.98848e-01  2.77591e-01 -1.28705e+00
       H -5.95349e-01 -4.56165e-01  1.00699e+00
       L  3.85758e+01 -6.81711e-01 -4.07132e+00
       L -2.26405e+00  7.57527e+00  2.17645e+00
6
# CELL(abcABC):  459.05226   459.05226   459.05226    90.00000    90.00000    90.00000  Step:          60  Bead:       0 x_centroid{angstrom}  cell{atomic_unit}
       C -2.51712e-01 -7.47384e-02  4.10227e-02
       O  8.28923e-01  2.35947e-01 -1.26219e-01
       H -6.72010e-01  2.80380e-01 -1.30580e+00
       H -6.39224e-01 -4.65799e-01  1.00219e+00
       L  4.16866e+01 -5.66352e-01 -3.82798e+00
       L -2.29694e+00  7.78890e+00  2.27144e+00
6
# CELL(abcABC):  459.05226   459.05226   459.05226    90.00000    90.00000    90.00000  Step:          61  Bead:       0 x_centroid{angstrom}  cell{atomic_unit}
       C -2.40818e-01 -7.18490e-02  4.58994e-02
       O  8.22144e-01  2.34542e-01 -1.28928e-01
       H -6.49681e-01  2.78498e-01 -1.31448e+00
       H -6.85239e-01 -4.76180e-01  9.95550e-01
       L  4.44059e+01 -4.31319e-01 -3.51473e+00
       L -2.28427e+00  7.91212e+00  2.36148e+00
6
# CELL(abcABC):  459.05226   459.05226   459.05226    90.00000    90.00000    90.00000  Step:          62  Bead:       0 x_centroid{angstrom}  cell{atomic_unit}
       C -2.31067e-01 -6.89580e-02  4.94576e-02
       O  8.16532e-01  2.33329e-01 -1.31086e-01
       H -6.31791e-01  2.71533e-01 -1.31252e+00
       H -7.31479e-01 -4.84516e-01  9.85173e-01
       L  4.67224e+01 -2.73861e-01 -3.17871e+00
       L -2.33496e+00  7.93489e+00  2.51036e+00
6
# CELL(abcABC):  459.05226   459.05226   459.05226    90.00000    90.00000    90.00000  Step:          63  Bead:       0 x_centroid{angstrom}  cell{atomic_unit}
       C -2.23292e-01 -6.58598e-02  5.23106e-02
       O  8.12760e-01  2.32108e-01 -1.33055e-01
       H -6.19237e-01  2.60795e-01 -1.30102e+00
       H -7.77818e-01 -4.91375e-01  9.70588e-01
       L  4.86685e+01 -1.18134e-01 -2.75701e+00
       L -2.39819e+00  7.88588e+00  2.72252e+00
6
# CELL(abcABC):  459.05226   459.05226   459.05226    90.00000    90.00000    90.00000  Step:          64  Bead:       0 x_centroid{angstrom}  cell{atomic_unit}
       C -2.17520e-01 -6.30576e-02  5.44452e-02
       O  8.10852e-01  2.31297e-01 -1.34808e-01
       H -6.12778e-01  2.46401e-01 -1.28046e+00
       H -8.23603e-01 -4.97529e-01  9.52028e-01
       L  5.02111e+01  4.21123e-02 -2.27681e+00
       L -2.42661e+00  7.77625e+00  2.94926e+00
6
# CELL(abcABC):  459.05226   459.05226   459.05226    90.00000    90.00000    90.00000  Step:          65  Bead:       0 x_centroid{angstrom}  cell{atomic_unit}
       C -2.14639e-01 -6.02578e-02  5.57140e-02
       O  8.11214e-01  2.30666e-01 -1.36277e-01
       H -6.11125e-01  2.27705e-01 -1.25147e+00
       H -8.65913e-01 -5.02103e-01  9.30866e-01
       L  5.12974e+01  1.54336e-01 -1.75651e+00
       L -2.45147e+00  7.54438e+00  3.11646e+00
6
# CELL(abcABC):  459.05226   459.05226   459.05226    90.00000    90.00000    90.00000  Step:          66  Bead:       0 x_centroid{angstrom}  cell{atomic_unit}
       C -2.14808e-01 -5.80919e-02  5.63082e-02