8
# CELL(abcABC):  459.05226   459.05226   459.05226    90.00000    90.00000    90.00000  Step:           0  Bead:       0 x_centroid{angstrom}  cell{atomic_unit}
       C -1.59952e-01  7.73417e-15 -3.30660e-15
       O -1.30437e+00 -1.37101e-15  3.69725e-15
       S  1.46432e+00 -6.36316e-15 -3.90655e-16
       C -1.59952e-01  7.73417e-15 -3.30660e-15
       O -1.30437e+00 -1.37101e-15  3.69725e-15
       S  1.46432e+00 -6.36316e-15 -3.90655e-16
       L  1.00000e-01  0.00000e+00  0.00000e+00
       L  0.00000e+00  0.00000e+00  0.00000e+00
8
# CELL(abcABC):  459.05226   459.05226   459.05226    90.00000    90.00000    90.00000  Step:           1  Bead:       0 x_centroid{angstrom}  cell{atomic_unit}
       C -1.59949e-01  8.05343e-10  3.47808e-09
       O -1.30437e+00  2.95671e-09  2.01777e-09
       S  1.46432e+00 -4.41973e-09 -3.01744e-09
       C -1.59949e-01  5.12376e-09 -4.16663e-09
       O -1.30437e+00  3.45468e-09  3.28796e-09
       S  1.46432e+00 -1.00773e-09  6.70778e-10
       L  1.05042e-01 -2.69258e-07 -1.15283e-06
       L -8.33909e-07  7.17030e-07 -1.34558e-06
8
# CELL(abcABC):  459.05226   459.05226   459.05226    90.00000    90.00000    90.00000  Step:           2  Bead:       0 x_centroid{angstrom}  cell{atomic_unit}
       C -1.59940e-01  1.59003e-09  6.94971e-09
       O -1.30437e+00  5.92140e-09  4.03769e-09
       S  1.46432e+00 -8.83553e-09 -6.03443e-09
       C -1.59939e-01  1.02225e-08 -8.32301e-09
       O -1.30437e+00  6.91928e-09  6.57071e-09
       S  1.46432e+00 -2.01084e-09  1.33942e-09
       L  1.19935e-01 -5.27187e-07 -2.25716e-06
       L -1.67770e-06  1.40222e-06 -2.63454e-06
8
# CELL(abcABC):  459.05226   459.05226   459.05226    90.00000    90.00000    90.00000  Step:           3  Bead:       0 x_centroid{angstrom}  cell{atomic_unit}
       C -1.59925e-01  2.33427e-09  1.04085e-08
       O -1.30438e+00  8.90171e-09  6.06191e-09
       S  1.46431e+00 -1.32436e-08 -9.05052e-09
       C -1.59925e-01  1.52719e-08 -1.24589e-08
       O -1.30438e+00  1.04034e-08  9.84308e-09
       S  1.46431e+00 -3.00490e-09  2.00379e-09
       L  1.43990e-01 -7.62932e-07 -3.26651e-06
       L -2.49274e-06  2.02508e-06 -3.81264e-06
8
# CELL(abcABC):  459.05226   459.05226   459.05226    90.00000    90.00000    90.00000  Step:           4  Bead:       0 x_centroid{angstrom}  cell{atomic_unit}
       C -1.59906e-01  3.01998e-09  1.38481e-08
       O -1.30439e+00  1.19046e-08  8.09263e-09
       S  1.46431e+00 -1.76406e-08 -1.20652e-08
       C -1.59906e-01  2.02497e-08 -1.65640e-08
       O -1.30439e+00  1.39159e-08  1.30999e-08
       S  1.46431e+00 -3.98578e-09  2.66185e-09
       L  1.76099e-01 -9.66574e-07 -4.13841e-06
       L -3.23965e-06  2.55781e-06 -4.83032e-06
8
# CELL(abcABC):  459.05226   459.05226   459.05226    90.00000    90.00000    90.00000  Step:           5  Bead:       0 x_centroid{angstrom}  cell{atomic_unit}
       C -1.59884e-01  3.63152e-09  1.72622e-08
       O -1.30439e+00  1.49362e-08  1.01321e-08
       S  1.46430e+00 -2.20234e-08 -1.50779e-08
       C -1.59884e-01  2.51357e-08 -2.06282e-08
       O -1.30439e+00  1.74648e-08  1.63363e-08
       S  1.46430e+00 -4.94984e-09  3.31157e-09
       L  2.14784e-01 -1.12954e-06 -4.83618e-06
       L -3.88027e-06  2.97644e-06 -5.64474e-06
8
# CELL(abcABC):  459.05226   459.05226   459.05226    90.00000    90.00000    90.00000  Step:           6  Bead:       0 x_centroid{angstrom}  cell{atomic_unit}
       C -1.59862e-01  4.15634e-09  2.06448e-08
       O -1.30440e+00  1.80013e-08  1.21825e-08
       S  1.46430e+00 -2.63898e-08 -1.80881e-08
       C -1.59862e-01  2.99132e-08 -2.46412e-08
       O -1.30440e+00  2.10569e-08  1.95471e-08
       S  1.46430e+00 -5.89403e-09  3.95105e-09
       L  2.58278e-01 -1.24498e-06 -5.33045e-06
       L -4.37957e-06  3.26191e-06 -6.22165e-06
8
# CELL(abcABC):  459.05226   459.05226   459.05226    90.00000    90.00000    90.00000  Step:           7  Bead:       0 x_centroid{angstrom}  cell{atomic_unit}
       C -1.59841e-01  4.58552e-09  2.39899e-08
       O -1.30440e+00  2.11034e-08  1.42463e-08
       S  1.46429e+00 -3.07380e-08 -2.10950e-08
       C -1.59841e-01  3.45689e-08 -2.85927e-08
       O -1.30440e+00  2.46974e-08  2.27277e-08
       S  1.46429e+00 -6.81600e-09  4.57848e-09
       L  3.04606e-01 -1.30804e-06 -5.60043e-06
       L -4.70753e-06  3.40083e-06 -6.53677e-06
8
# CELL(abcABC):  459.05226   459.05226   459.05226    90.00000    90.00000    90.00000  Step:           8  Bead:       0 x_centroid{angstrom}  cell{atomic_unit}
       C -1.59823e-01  4.91413e-09  2.72916e-08
       O -1.30441e+00  2.42444e-08  1.63258e-08
       S  1.46429e+00 -3.50671e-08 -2.40980e-08
       C -1.59823e-01  3.90937e-08 -3.24728e-08
       O -1.30441e+00  2.83902e-08  2.58734e-08
       S  1.46429e+00 -7.71418e-09  5.19216e-09
       L  3.51684e-01 -1.31605e-06 -5.63476e-06
       L -4.84083e-06  3.38610e-06 -6.57683e-06
8
# CELL(abcABC):  459.05226   459.05226   459.05226    90.00000    90.00000    90.00000  Step:           9  Bead:       0 x_centroid{angstrom}  cell{atomic_unit}
       C -1.59810e-01  5.14140e-09  3.05444e-08
       O -1.30441e+00  2.74245e-08  1.84235e-08
       S  1.46428e+00 -3.93769e-08 -2.70960e-08
       C -1.59810e-01  4.34827e-08 -3.62712e-08
       O -1.30441e+00  3.21375e-08  2.89797e-08
       S  1.46428e+00 -8.58779e-09  5.79052e-09
       L  3.97421e-01 -1.26869e-06 -5.43198e-06
       L -4.76432e-06  3.21719e-06 -6.34015e-06
8
# CELL(abcABC):  459.05226   459.05226   459.05226    90.00000    90.00000    90.00000  Step:          10  Bead:       0 x_centroid{angstrom}  cell{atomic_unit}
       C -1.59803e-01  5.27076e-09  3.37428e-08
       O -1.30440e+00  3.06426e-08  2.05419e-08
       S  1.46428e+00 -4.36681e-08 -3.00883e-08
       C -1.59803e-01  4.77352e-08 -3.99779e-08
       O -1.30440e+00  3.59397e-08  3.20423e-08
       S  1.46428e+00 -9.43688e-09  6.37212e-09
       L  4.39818e-01 -1.16794e-06 -5.00064e-06
       L -4.47208e-06  2.90019e-06 -5.83670e-06
8
# CELL(abcABC):  459.05226   459.05226   459.05226    90.00000    90.00000    90.00000  Step:          11  Bead:       0 x_centroid{angstrom}  cell{atomic_unit}
       C -1.59804e-01  5.30967e-09  3.68817e-08
       O -1.30439e+00  3.38957e-08  2.26836e-08
       S  1.46427e+00 -4.79423e-08 -3.30738e-08
       C -1.59804e-01  5.18547e-08 -4.35832e-08
       O -1.30439e+00  3.97957e-08  3.50571e-08
       S  1.46427e+00 -1.02623e-08  6.93565e-09
       L  4.77064e-01 -1.01804e-06 -4.35889e-06
       L -3.96814e-06  2.44751e-06 -5.08764e-06
8
# CELL(abcABC):  459.05226   459.05226   459.05226    90.00000    90.00000    90.00000  Step:          12  Bead:       0 x_centroid{angstrom}  cell{atomic_unit}
       C -1.59814e-01  5.26926e-09  3.99560e-08
       O -1.30438e+00  3.71796e-08  2.48511e-08
       S  1.46427e+00 -5.22014e-08 -3.60513e-08
       C -1.59814e-01  5.58485e-08 -4.70772e-08
       O -1.30438e+00  4.37029e-08  3.80203e-08
       S  1.46427e+00 -1.10655e-08  7.47990e-09
       L  5.07618e-01 -8.25312e-07 -3.53372e-06
       L -3.26669e-06  1.87739e-06 -4.12451e-06
8
# CELL(abcABC):  459.05226   459.05226   459.05226    90.00000    90.00000    90.00000  Step:          13  Bead:       0 x_centroid{angstrom}  cell{atomic_unit}
       C -1.59832e-01  5.16388e-09  4.29611e-08
       O -1.30436e+00  4.04888e-08  2.70470e-08
       S  1.46427e+00 -5.64483e-08 -3.90199e-08
       C -1.59832e-01  5.97271e-08 -5.04506e-08
       O -1.30436e+00  4.76576e-08  4.09281e-08
       S  1.46427e+00 -1.18488e-08  8.00380e-09
       L  5.30282e-01 -5.97853e-07 -2.55986e-06
       L -2.39175e-06  1.21311e-06 -2.98784e-06
8
# CELL(abcABC):  459.05226   459.05226   459.05226    90.00000    90.00000    90.00000  Step:          14  Bead:       0 x_centroid{angstrom}  cell{atomic_unit}
       C -1.59858e-01  5.01043e-09  4.58923e-08
       O -1.30434e+00  4.38168e-08  2.92739e-08
       S  1.46427e+00 -6.06863e-08 -4.19783e-08
       C -1.59858e-01  6.35038e-08 -5.36939e-08
       O -1.30434e+00  5.16549e-08  4.37770e-08
       S  1.46427e+00 -1.26147e-08  8.50638e-09
       L  5.44251e-01 -3.45236e-07 -1.47829e-06
       L -1.37648e-06  4.81988e-07 -1.72543e-06
8
# CELL(abcABC):  459.05226   459.05226   459.05226    90.00000    90.00000    90.00000  Step:          15  Bead:       0 x_centroid{angstrom}  cell{atomic_unit}
       C -1.59892e-01  4.82762e-09  4.87454e-08
       O -1.30432e+00  4.71565e-08  3.15343e-08
       S  1.46427e+00 -6.49188e-08 -4.49253e-08
       C -1.59892e-01  6.71938e-08 -5.67983e-08
       O -1.30432e+00  5.56890e-08  4.65638e-08
       S  1.46427e+00 -1.33664e-08  8.98675e-09
       L  5.49142e-01 -7.80931e-08 -3.34517e-07
       L -2.61834e-07 -2.85754e-07 -3.90431e-07
8
# CELL(abcABC):  459.05226   459.05226   459.05226    90.00000    90.00000    90.00000  Step:          16  Bead:       0 x_centroid{angstrom}  cell{atomic_unit}
       C -1.59931e-01  4.63520e-09  5.15162e-08
       O -1.30429e+00  5.05002e-08  3.38308e-08
       S  1.46427e+00 -6.91498e-08 -4.78597e-08
       C -1.59931e-01  7.08135e-08 -5.97549e-08
       O -1.30429e+00  5.97539e-08  4.92853e-08
       S  1.46427e+00 -1.41072e-08  9.44409e-09
       L  5.45005e-01  1.92336e-07  8.23333e-07
       L  9.05046e-07 -1.05832e-06  9.61001e-07
8
# CELL(abcABC):  459.05226   459.05226   459.05226    90.00000    90.00000    90.00000  Step:          17  Bead:       0 x_centroid{angstrom}  cell{atomic_unit}
       C -1.59975e-01  4.45303e-09  5.42008e-08
       O -1.30426e+00  5.38403e-08  3.61658e-08
       S  1.46427e+00 -7.33830e-08 -5.07804e-08
       C -1.59975e-01  7.43796e-08 -6.25555e-08
       O -1.30426e+00  6.38434e-08  5.19387e-08
       S  1.46427e+00 -1.48402e-08  9.87766e-09
       L  5.32307e-01  4.54672e-07  1.94654e-06
       L  2.07293e-06 -1.80366e-06  2.27200e-06
8
# CELL(abcABC):  459.05226   459.05226   459.05226    90.00000    90.00000    90.00000  Step:          18  Bead:       0 x_centroid{angstrom}  cell{atomic_unit}
       C -1.60020e-01  4.30030e-09  5.67953e-08
       O -1.30424e+00  5.71695e-08  3.85415e-08
       S  1.46428e+00 -7.76221e-08 -5.36862e-08
       C -1.60020e-01  7.79082e-08 -6.51921e-08
       O -1.30424e+00  6.79515e-08  5.45211e-08
       S  1.46428e+00 -1.55688e-08  1.02867e-08
       L  5.11904e-01  6.97877e-07  2.98784e-06
       L  3.18877e-06 -2.49086e-06  3.48739e-06
8
# CELL(abcABC):  459.05226   459.05226   459.05226    90.00000    90.00000    90.00000  Step:          19  Bead:       0 x_centroid{angstrom}  cell{atomic_unit}
       C -1.60064e-01  4.19462e-09  5.92963e-08
       O -1.30421e+00  6.04812e-08  4.09603e-08
       S  1.46428e+00 -8.18705e-08 -5.65760e-08
       C -1.60064e-01  8.14139e-08 -6.76571e-08
       O -1.30421e+00  7.20726e-08  5.70298e-08
       S  1.46428e+00 -1.62959e-08  1.06706e-08
       L  4.84980e-01  9.11715e-07  3.90342e-06
       L  4.20020e-06 -3.09144e-06  4.55604e-06
8
# CELL(abcABC):  459.05226   459.05226   459.05226    90.00000    90.00000    90.00000  Step:          20  Bead:       0 x_centroid{angstrom}  cell{atomic_unit}
       C -1.60104e-01  4.15131e-09  6.17001e-08
       O -1.30419e+00  6.37693e-08  4.34241e-08
       S  1.46428e+00 -8.61312e-08 -5.94489e-08
       C -1.60104e-01  8.49095e-08 -6.99435e-08
       O -1.30419e+00  7.62020e-08  5.94624e-08
       S  1.46428e+00 -1.70239e-08  1.10286e-08
       L  4.52985e-01  1.08719e-06  4.65475e-06
       L  5.05805e-06 -3.58058e-06  5.43299e-06
8
# CELL(abcABC):  459.05226   459.05226   459.05226    90.00000    90.00000    90.00000  Step:          21  Bead:       0 x_centroid{angstrom}  cell{atomic_unit}
       C -1.60139e-01  4.18271e-09  6.40037e-08
       O -1.30417e+00  6.70292e-08  4.59348e-08
       S  1.46429e+00 -9.04066e-08 -6.23041e-08
       C -1.60139e-01  8.84045e-08 -7.20445e-08
       O -1.30417e+00  8.03363e-08  6.18165e-08
       S  1.46429e+00 -1.77549e-08  1.13599e-08
       L  4.17554e-01  1.21692e-06  5.21022e-06
       L  5.71875e-06 -3.93819e-06  6.08132e-06
8
# CELL(abcABC):  459.05226   459.05226   459.05226    90.00000    90.00000    90.00000  Step:          22  Bead:       0 x_centroid{angstrom}  cell{atomic_unit}
       C -1.60165e-01  4.29766e-09  6.62037e-08
       O -1.30416e+00  7.02576e-08  4.84942e-08
       S  1.46429e+00 -9.46983e-08 -6.51406e-08
       C -1.60164e-01  9.19056e-08 -7.39540e-08
       O -1.30416e+00  8.44730e-08  6.40897e-08
       S  1.46429e+00 -1.84901e-08  1.16640e-08
       L  3.80416e-01  1.29544e-06  5.54646e-06
       L  6.14662e-06 -4.14972e-06  6.47377e-06
8
# CELL(abcABC):  459.05226   459.05226   459.05226    90.00000    90.00000    90.00000  Step:          23  Bead:       0 x_centroid{angstrom}  cell{atomic_unit}
       C -1.60180e-01  4.50112e-09  6.82971e-08
       O -1.30416e+00  7.34525e-08  5.11037e-08
       S  1.46430e+00 -9.90073e-08 -6.79580e-08
       C -1.60180e-01  9.54153e-08 -7.56664e-08
       O -1.30416e+00  8.86112e-08  6.62797e-08
       S  1.46430e+00 -1.92302e-08  1.19401e-08
       L  3.43311e-01  1.31945e-06  5.64931e-06
       L  6.31569e-06 -4.20683e-06  6.59382e-06
8
# CELL(abcABC):  459.05226   459.05226   459.05226    90.00000    90.00000    90.00000  Step:          24  Bead:       0 x_centroid{angstrom}  cell{atomic_unit}
       C -1.60183e-01  4.79392e-09  7.02812e-08
       O -1.30416e+00  7.66138e-08  5.37648e-08
       S  1.46430e+00 -1.03334e-07 -7.07557e-08
       C -1.60183e-01  9.89323e-08 -7.71763e-08
       O -1.30416e+00  9.27516e-08  6.83843e-08
       S  1.46430e+00 -1.99750e-08  1.21873e-08
       L  3.07896e-01  1.28794e-06  5.51445e-06
       L  6.21131e-06 -4.10771e-06  6.43641e-06
8
# CELL(abcABC):  459.05226   459.05226   459.05226    90.00000    90.00000    90.00000  Step:          25  Bead:       0 x_centroid{angstrom}  cell{atomic_unit}
       C -1.60173e-01  5.17276e-09  7.21532e-08
       O -1.30418e+00  7.97426e-08  5.64784e-08
       S  1.46431e+00 -1.07677e-07 -7.35333e-08
       C -1.60173e-01  1.02452e-07 -7.84791e-08
       O -1.30418e+00  9.68964e-08  7.04014e-08
       S  1.46431e+00 -2.07237e-08  1.24049e-08
       L  2.75669e-01  1.20224e-06  5.14756e-06
       L  5.83100e-06 -3.85717e-06  6.00817e-06
8
# CELL(abcABC):  459.05226   459.05226   459.05226    90.00000    90.00000    90.00000  Step:          26  Bead:       0 x_centroid{angstrom}  cell{atomic_unit}
       C -1.60151e-01  5.63036e-09  7.39104e-08
       O -1.30420e+00  8.28418e-08  5.92456e-08
       S  1.46431e+00 -1.12036e-07 -7.62906e-08
       C -1.60151e-01  1.05964e-07 -7.95705e-08
       O -1.30420e+00  1.01049e-07  7.23289e-08
       S  1.46431e+00 -2.14744e-08  1.25921e-08
       L  2.47898e-01  1.06594e-06  4.56407e-06
       L  5.18500e-06 -3.46644e-06  5.32712e-06
8
# CELL(abcABC):  459.05226   459.05226   459.05226    90.00000    90.00000    90.00000  Step:          27  Bead:       0 x_centroid{angstrom}  cell{atomic_unit}
       C -1.60115e-01  6.15569e-09  7.55506e-08
       O -1.30423e+00  8.59156e-08  6.20670e-08
       S  1.46431e+00 -1.16408e-07 -7.90276e-08
       C -1.60115e-01  1.09456e-07 -8.04469e-08
       O -1.30423e+00  1.05215e-07  7.41648e-08
       S  1.46431e+00 -2.22249e-08  1.27480e-08
       L  2.25569e-01  8.84799e-07  3.78853e-06
       L  4.29597e-06 -2.95265e-06  4.42192e-06
8
# CELL(abcABC):  459.05226   459.05226   459.05226    90.00000    90.00000    90.00000  Step:          28  Bead:       0 x_centroid{angstrom}  cell{atomic_unit}
       C -1.60068e-01  6.73453e-09  7.70714e-08
       O -1.30426e+00  8.89695e-08  6.49432e-08
       S  1.46431e+00 -1.20791e-07 -8.17443e-08
       C -1.60068e-01  1.12914e-07 -8.11050e-08
       O -1.30426e+00  1.09399e-07  7.59071e-08
       S  1.46431e+00 -2.29722e-08  1.28717e-08
       L  2.09344e-01  6.66423e-07  2.85358e-06
       L  3.19831e-06 -2.33815e-06  3.33065e-06
8
# CELL(abcABC):  459.05226   459.05226   459.05226    90.00000    90.00000    90.00000  Step:          29  Bead:       0 x_centroid{angstrom}  cell{atomic_unit}
       C -1.60011e-01  7.35001e-09  7.84710e-08
       O -1.30430e+00  9.20100e-08  6.78745e-08
       S  1.46431e+00 -1.25182e-07 -8.44408e-08
       C -1.60011e-01  1.16318e-07 -8.15420e-08
       O -1.30430e+00  1.13610e-07  7.75541e-08
       S  1.46431e+00 -2.37130e-08  1.29625e-08
       L  1.99549e-01  4.20004e-07  1.79856e-06
       L  1.93671e-06 -1.64953e-06  2.09924e-06
8
# CELL(abcABC):  459.05226   459.05226   459.05226    90.00000    90.00000    90.00000  Step:          30  Bead:       0 x_centroid{angstrom}  cell{atomic_unit}
       C -1.59947e-01  7.98336e-09  7.97474e-08
       O -1.30434e+00  9.50442e-08  7.08610e-08
       S  1.46430e+00 -1.29576e-07 -8.71174e-08
       C -1.59947e-01  1.19648e-07 -8.17558e-08
       O -1.30434e+00  1.17855e-07  7.91039e-08
       S  1.46430e+00 -2.44433e-08  1.30196e-08
       L  1.96167e-01  1.55912e-07  6.67861e-07
       L  5.64339e-07 -9.16461e-07  7.79491e-07
8
# CELL(abcABC):  459.05226   459.05226   459.05226    90.00000    90.00000    90.00000  Step:          31  Bead:       0 x_centroid{angstrom}  cell{atomic_unit}
       C -1.59879e-01  8.61469e-09  8.08993e-08
       O -1.30439e+00  9.80798e-08  7.39028e-08
       S  1.46430e+00 -1.33970e-07 -8.97743e-08
       C -1.59879e-01  1.22884e-07 -8.17446e-08
       O -1.30439e+00  1.22142e-07  8.05550e-08
       S  1.46430e+00 -2.51594e-08  1.30421e-08
       L  1.98862e-01 -1.14740e-07 -4.90943e-07
       L -8.59522e-07 -1.70479e-07 -5.73053e-07
8
# CELL(abcABC):  459.05226   459.05226   459.05226    90.00000    90.00000    90.00000  Step:          32  Bead:       0 x_centroid{angstrom}  cell{atomic_unit}
       C -1.59810e-01  9.22386e-09  8.19252e-08
       O -1.30443e+00  1.01124e-07  7.69997e-08
       S  1.46430e+00 -1.38360e-07 -9.24120e-08
       C -1.59810e-01  1.26005e-07 -8.15072e-08
       O -1.30443e+00  1.26478e-07  8.19061e-08
       S  1.46430e+00 -2.58571e-08  1.30294e-08
       L  2.07012e-01 -3.80565e-07 -1.62909e-06
       L -2.27212e-06  5.56402e-07 -1.90148e-06
8
# CELL(abcABC):  459.05226   459.05226   459.05226    90.00000    90.00000    90.00000  Step:          33  Bead:       0 x_centroid{angstrom}  cell{atomic_unit}
       C -1.59743e-01  9.79128e-09  8.28244e-08
       O -1.30448e+00  1.04186e-07  8.01515e-08
       S  1.46429e+00 -1.42743e-07 -9.50309e-08
       C -1.59742e-01  1.28991e-07 -8.10427e-08
       O -1.30448e+00  1.30873e-07  8.31561e-08
       S  1.46429e+00 -2.65328e-08  1.29809e-08
       L  2.19761e-01 -6.30375e-07 -2.69869e-06
       L -3.61011e-06  1.23304e-06 -3.14991e-06
8
# CELL(abcABC):  459.05226   459.05226   459.05226    90.00000    90.00000    90.00000  Step:          34  Bead:       0 x_centroid{angstrom}  cell{atomic_unit}
       C -1.59681e-01  1.02988e-08  8.35962e-08
       O -1.30452e+00  1.07270e-07  8.33579e-08
       S  1.46429e+00 -1.47114e-07 -9.76313e-08
       C -1.59681e-01  1.31822e-07 -8.03509e-08
       O -1.30451e+00  1.35333e-07  8.43040e-08
       S  1.46429e+00 -2.71828e-08  1.28960e-08
       L  2.36077e-01 -8.53661e-07 -3.65473e-06
       L -4.81248e-06  1.83049e-06 -4.26579e-06
8
# CELL(abcABC):  459.05226   459.05226   459.05226    90.00000    90.00000    90.00000  Step:          35  Bead:       0 x_centroid{angstrom}  cell{atomic_unit}
       C -1.59629e-01  1.07305e-08  8.42402e-08
       O -1.30455e+00  1.10384e-07  8.66183e-08
       S  1.46429e+00 -1.51471e-07 -1.00214e-07
       C -1.59628e-01  1.34484e-07 -7.94320e-08
       O -1.30455e+00  1.39863e-07  8.53492e-08
       S  1.46429e+00 -2.78041e-08  1.27744e-08
       L  2.54825e-01 -1.04103e-06 -4.45699e-06
       L -5.82346e-06  2.32324e-06 -5.20217e-06
8
# CELL(abcABC):  459.05226   459.05226   459.05226    90.00000    90.00000    90.00000  Step:          36  Bead:       0 x_centroid{angstrom}  cell{atomic_unit}
       C -1.59588e-01  1.10732e-08  8.47566e-08
       O -1.30457e+00  1.13533e-07  8.99323e-08
       S  1.46428e+00 -1.55812e-07 -1.02779e-07
       C -1.59588e-01  1.36963e-07 -7.82867e-08
       O -1.30457e+00  1.44470e-07  8.62916e-08
       S  1.46428e+00 -2.83942e-08  1.26159e-08
       L  2.74832e-01 -1.18458e-06 -5.07171e-06
       L -6.59514e-06  2.69032e-06 -5.91966e-06
8
# CELL(abcABC):  459.05226   459.05226   459.05226    90.00000    90.00000    90.00000  Step:          37  Bead:       0 x_centroid{angstrom}  cell{atomic_unit}
       C -1.59561e-01  1.13173e-08  8.51458e-08
       O -1.30458e+00  1.16720e-07  9.32993e-08
       S  1.46428e+00 -1.60133e-07 -1.05326e-07
       C -1.59561e-01  1.39250e-07 -7.69162e-08
       O -1.30458e+00  1.49157e-07  8.71312e-08
       S  1.46428e+00 -2.89513e-08  1.24204e-08
       L  2.94963e-01 -1.27830e-06 -5.47302e-06
       L -7.08988e-06  2.91615e-06 -6.38806e-06
8
# CELL(abcABC):  459.05226   459.05226   459.05226    90.00000    90.00000    90.00000  Step:          38  Bead:       0 x_centroid{angstrom}  cell{atomic_unit}
       C -1.59550e-01  1.14570e-08  8.54086e-08
       O -1.30459e+00  1.19947e-07  9.67188e-08
       S  1.46428e+00 -1.64435e-07 -1.07857e-07
       C -1.59550e-01  1.41339e-07 -7.53222e-08
       O -1.30459e+00  1.53926e-07  8.78684e-08
       S  1.46428e+00 -2.94743e-08  1.21879e-08
       L  3.14182e-01 -1.31822e-06 -5.64404e-06
       L -7.28213e-06  2.99124e-06 -6.58767e-06
8
# CELL(abcABC):  459.05226   459.05226   459.05226    90.00000    90.00000    90.00000  Step:          39  Bead:       0 x_centroid{angstrom}  cell{atomic_unit}
       C -1.59555e-01  1.14903e-08  8.55460e-08
       O -1.30458e+00  1.23216e-07  1.00190e-07
       S  1.46427e+00 -1.68717e-07 -1.10371e-07
       C -1.59555e-01  1.43229e-07 -7.35067e-08
       O -1.30458e+00  1.58776e-07  8.85042e-08
       S  1.46427e+00 -2.99631e-08  1.19188e-08
       L  3.31606e-01 -1.30268e-06 -5.57757e-06
       L -7.15976e-06  2.91259e-06 -6.51008e-06
8
# CELL(abcABC):  459.05226   459.05226   459.05226    90.00000    90.00000    90.00000  Step:          40  Bead:       0 x_centroid{angstrom}  cell{atomic_unit}
       C -1.59578e-01  1.14198e-08  8.55597e-08
       O -1.30456e+00  1.26524e-07  1.03713e-07
       S  1.46427e+00 -1.72979e-07 -1.12868e-07
       C -1.59578e-01  1.44925e-07 -7.14725e-08
       O -1.30456e+00  1.63707e-07  8.90396e-08
       S  1.46427e+00 -3.04183e-08  1.16134e-08
       L  3.46554e-01 -1.23232e-06 -5.27641e-06
       L -6.72482e-06  2.68379e-06 -6.15856e-06
8
# CELL(abcABC):  459.05226   459.05226   459.05226    90.00000    90.00000    90.00000  Step:          41  Bead:       0 x_centroid{angstrom}  cell{atomic_unit}
       C -1.59616e-01  1.12519e-08  8.54514e-08
       O -1.30453e+00  1.29870e-07  1.07286e-07
       S  1.46427e+00 -1.77222e-07 -1.15350e-07
       C -1.59616e-01  1.46433e-07 -6.92227e-08
       O -1.30453e+00  1.68716e-07  8.94764e-08
       S  1.46427e+00 -3.08412e-08  1.12723e-08
       L  3.58570e-01 -1.11011e-06 -4.75324e-06
       L -5.99353e-06  2.31491e-06 -5.54791e-06
8
# CELL(abcABC):  459.05226   459.05226   459.05226    90.00000    90.00000    90.00000  Step:          42  Bead:       0 x_centroid{angstrom}  cell{atomic_unit}
       C -1.59669e-01  1.09966e-08  8.52234e-08
       O -1.30450e+00  1.33250e-07  1.10908e-07
       S  1.46427e+00 -1.81449e-07 -1.17815e-07
       C -1.59669e-01  1.47766e-07 -6.67608e-08
       O -1.30450e+00  1.73798e-07  8.98164e-08
       S  1.46427e+00 -3.12341e-08  1.08964e-08
       L  3.67441e-01 -9.41185e-07 -4.03005e-06
       L -4.99569e-06  1.82201e-06 -4.70381e-06
8
# CELL(abcABC):  459.05226   459.05226   459.05226    90.00000    90.00000    90.00000  Step:          43  Bead:       0 x_centroid{angstrom}  cell{atomic_unit}
       C -1.59734e-01  1.06675e-08  8.48782e-08
       O -1.30445e+00  1.36659e-07  1.14581e-07
       S  1.46428e+00 -1.85663e-07 -1.20263e-07
       C -1.59734e-01  1.48938e-07 -6.40908e-08
       O -1.30445e+00  1.78946e-07  9.00620e-08
       S  1.46428e+00 -3.15999e-08  1.04866e-08
       L  3.73194e-01 -7.32656e-07 -3.13729e-06
       L -3.77340e-06  1.22651e-06 -3.66178e-06
8
# CELL(abcABC):  459.05226   459.05226   459.05226    90.00000    90.00000    90.00000  Step:          44  Bead:       0 x_centroid{angstrom}  cell{atomic_unit}
       C -1.59808e-01  1.02808e-08  8.44186e-08
       O -1.30440e+00  1.40090e-07  1.18301e-07
       S  1.46428e+00 -1.89865e-07 -1.22696e-07
       C -1.59808e-01  1.49969e-07 -6.12173e-08
       O -1.30440e+00  1.84155e-07  9.02158e-08
       S  1.46428e+00 -3.19419e-08  1.00438e-08
       L  3.76073e-01 -4.93299e-07 -2.11252e-06
       L -2.37921e-06  5.54251e-07 -2.46567e-06
8
# CELL(abcABC):  459.05226   459.05226   459.05226    90.00000    90.00000    90.00000  Step:          45  Bead:       0 x_centroid{angstrom}  cell{atomic_unit}
       C -1.59888e-01  9.85492e-09  8.38476e-08
       O -1.30435e+00  1.43536e-07  1.22070e-07
       S  1.46428e+00 -1.94060e-07 -1.25112e-07
       C -1.59888e-01  1.50878e-07 -5.81451e-08
       O -1.30435e+00  1.89415e-07  9.02806e-08
       S  1.46428e+00 -3.22641e-08  9.56935e-09
       L  3.76516e-01 -2.33185e-07 -9.98861e-07
       L -8.73781e-07 -1.65619e-07 -1.16582e-06
8
# CELL(abcABC):  459.05226   459.05226   459.05226    90.00000    90.00000    90.00000  Step:          46  Bead:       0 x_centroid{angstrom}  cell{atomic_unit}
       C -1.59971e-01  9.40943e-09  8.31687e-08
       O -1.30429e+00  1.46991e-07  1.25885e-07
       S  1.46428e+00 -1.98252e-07 -1.27512e-07
       C -1.59970e-01  1.51689e-07 -5.48795e-08
       O -1.30429e+00  1.94718e-07  9.02597e-08
       S  1.46428e+00 -3.25706e-08  9.06450e-09
       L  3.75101e-01  3.67417e-08  1.56830e-07
       L  6.76892e-07 -9.01867e-07  1.83094e-07
8
# CELL(abcABC):  459.05226   459.05226   459.05226    90.00000    90.00000    90.00000  Step:          47  Bead:       0 x_centroid{angstrom}  cell{atomic_unit}
       C -1.60051e-01  8.96439e-09  8.23853e-08
       O -1.30424e+00  1.50446e-07  1.29746e-07
       S  1.46429e+00 -2.02444e-07 -1.29896e-07
       C -1.60051e-01  1.52422e-07 -5.14263e-08
       O -1.30424e+00  2.00055e-07  9.01563e-08
       S  1.46429e+00 -3.28656e-08  8.53064e-09
       L  3.72504e-01  3.05122e-07  1.30592e-06
       L  2.20448e-06 -1.62252e-06  1.52430e-06
8
# CELL(abcABC):  459.05226   459.05226   459.05226    90.00000    90.00000    90.00000  Step:          48  Bead:       0 x_centroid{angstrom}  cell{atomic_unit}
       C -1.60126e-01  8.53949e-09  8.15012e-08
       O -1.30419e+00  1.53894e-07  1.33653e-07
       S  1.46429e+00 -2.06641e-07 -1.32264e-07
       C -1.60126e-01  1.53102e-07 -4.77917e-08
       O -1.30419e+00  2.05418e-07  8.99739e-08
       S  1.46429e+00 -3.31534e-08  7.96920e-09
       L  3.69434e-01  5.60663e-07  2.40006e-06
       L  3.64147e-06 -2.29622e-06  2.80137e-06
8
# CELL(abcABC):  459.05226   459.05226   459.05226    90.00000    90.00000    90.00000  Step:          49  Bead:       0 x_centroid{angstrom}  cell{atomic_unit}
       C -1.60192e-01  8.15321e-09  8.05204e-08
       O -1.30414e+00  1.57328e-07  1.37603e-07
       S  1.46429e+00 -2.10845e-07 -1.34615e-07
       C -1.60192e-01  1.53750e-07 -4.39820e-08
       O -1.30414e+00  2.10797e-07  8.97163e-08
       S  1.46429e+00 -3.34380e-08  7.38168e-09
       L  3.66581e-01  7.92613e-07  3.39321e-06
       L  4.92424e-06 -2.89357e-06  3.96056e-06
8
# CELL(abcABC):  459.05226   459.05226   459.05226    90.00000    90.00000    90.00000  Step:          50  Bead:       0 x_centroid{angstrom}  cell{atomic_unit}
       C -1.60246e-01  7.82203e-09  7.94470e-08
       O -1.30411e+00  1.60741e-07  1.41597e-07
       S  1.46430e+00 -2.15061e-07 -1.36951e-07
       C -1.60246e-01  1.54384e-07 -4.00043e-08
       O -1.30411e+00  2.16186e-07  8.93870e-08
       S  1.46430e+00 -3.37230e-08  6.76958e-09
       L  3.64558e-01  9.91210e-07  4.24359e-06
       L  5.99602e-06 -3.38839e-06  4.95310e-06
8
# CELL(abcABC):  459.05226   459.05226   459.05226    90.00000    90.00000    90.00000  Step:          51  Bead:       0 x_centroid{angstrom}  cell{atomic_unit}
       C -1.60285e-01  7.55977e-09  7.82854e-08
       O -1.30408e+00  1.64129e-07  1.45632e-07
       S  1.46430e+00 -2.19290e-07 -1.39271e-07
       C -1.60285e-01  1.55022e-07 -3.58657e-08
       O -1.30408e+00  2.21578e-07  8.89899e-08
       S  1.46430e+00 -3.40116e-08  6.13440e-09
       L  3.63849e-01  1.14810e-06  4.91540e-06
       L  6.80950e-06 -3.75881e-06  5.73723e-06
8
# CELL(abcABC):  459.05226   459.05226   459.05226    90.00000    90.00000    90.00000  Step:          52  Bead:       0 x_centroid{angstrom}  cell{atomic_unit}
       C -1.60308e-01  7.37699e-09  7.70400e-08
       O -1.30407e+00  1.67487e-07  1.49707e-07
       S  1.46430e+00 -2.23535e-07 -1.41575e-07
       C -1.60308e-01  1.55679e-07 -3.15740e-08
       O -1.30407e+00  2.26967e-07  8.85288e-08
       S  1.46430e+00 -3.43064e-08  5.47763e-09
       L  3.64777e-01  1.25668e-06  5.38038e-06
       L  7.32898e-06 -3.98824e-06  6.27994e-06
8
# CELL(abcABC):  459.05226   459.05226   459.05226    90.00000    90.00000    90.00000  Step:          53  Bead:       0 x_centroid{angstrom}  cell{atomic_unit}
       C -1.60313e-01  7.28061e-09  7.57153e-08
       O -1.30406e+00  1.70813e-07  1.53821e-07
       S  1.46430e+00 -2.27798e-07 -1.43865e-07
       C -1.60313e-01  1.56364e-07 -2.71370e-08
       O -1.30406e+00  2.32349e-07  8.80074e-08
       S  1.46430e+00 -3.46091e-08  4.80072e-09
       L  3.67469e-01  1.31238e-06  5.61897e-06
       L  7.53201e-06 -4.06604e-06  6.55841e-06
8
# CELL(abcABC):  459.05226   459.05226   459.05226    90.00000    90.00000    90.00000  Step:          54  Bead:       0 x_centroid{angstrom}  cell{atomic_unit}
       C -1.60300e-01  7.27354e-09  7.43160e-08
       O -1.30407e+00  1.74106e-07  1.57971e-07
       S  1.46430e+00 -2.32078e-07 -1.46141e-07
       C -1.60300e-01  1.57083e-07 -2.25632e-08
       O -1.30407e+00  2.37722e-07  8.74295e-08
       S  1.46430e+00 -3.49208e-08  4.10508e-09