5
# CELL(abcABC):  459.05226   459.05226   459.05226    90.00000    90.00000    90.00000  Step:           0  Bead:       0 x_centroid{angstrom}  cell{atomic_unit}
       C -1.59952e-01  7.73417e-15 -3.30660e-15
       O -1.30437e+00 -1.37101e-15  3.69725e-15
       S  1.46432e+00 -6.36316e-15 -3.90655e-16
       L  1.00000e-01  0.00000e+00  0.00000e+00
       L  0.00000e+00  0.00000e+00  0.00000e+00
5
# CELL(abcABC):  459.05226   459.05226   459.05226    90.00000    90.00000    90.00000  Step:           1  Bead:       0 x_centroid{angstrom}  cell{atomic_unit}
       C -1.59951e-01  2.20979e-09  3.85552e-09
       O -1.30437e+00  4.36115e-09  2.39522e-09
       S  1.46432e+00 -3.01529e-09 -2.63999e-09
       L  1.01470e-01  4.46665e-07 -5.70433e-07
       L  7.28390e-07  2.29939e-07  6.14694e-07
5
# CELL(abcABC):  459.05226   459.05226   459.05226    90.00000    90.00000    90.00000  Step:           2  Bead:       0 x_centroid{angstrom}  cell{atomic_unit}
       C -1.59948e-01  4.41226e-09  7.70510e-09
       O -1.30437e+00  8.72551e-09  4.79308e-09
       S  1.46432e+00 -6.02894e-09 -5.27904e-09
       L  1.05812e-01  8.74536e-07 -1.11686e-06
       L  1.39990e-06  4.49850e-07  1.20352e-06
5
# CELL(abcABC):  459.05226   459.05226   459.05226    90.00000    90.00000    90.00000  Step:           3  Bead:       0 x_centroid{angstrom}  cell{atomic_unit}
       C -1.59943e-01  6.60038e-09  1.15428e-08
       O -1.30437e+00  1.30962e-08  7.19622e-09
       S  1.46432e+00 -9.03938e-09 -7.91621e-09
       L  1.12835e-01  1.26561e-06 -1.61630e-06
       L  1.98802e-06  6.50131e-07  1.74171e-06
5
# CELL(abcABC):  459.05226   459.05226   459.05226    90.00000    90.00000    90.00000  Step:           4  Bead:       0 x_centroid{angstrom}  cell{atomic_unit}
       C -1.59937e-01  8.76763e-09  1.53627e-08
       O -1.30437e+00  1.74759e-08  9.60725e-09
       S  1.46432e+00 -1.20452e-08 -1.05506e-08
       L  1.22227e-01  1.60343e-06 -2.04772e-06
       L  2.47086e-06  8.22012e-07  2.20661e-06
5
# CELL(abcABC):  459.05226   459.05226   459.05226    90.00000    90.00000    90.00000  Step:           5  Bead:       0 x_centroid{angstrom}  cell{atomic_unit}
       C -1.59930e-01  1.09082e-08  1.91590e-08
       O -1.30438e+00  2.18674e-08  1.20288e-08
       S  1.46431e+00 -1.50450e-08 -1.31812e-08
       L  1.33573e-01  1.87378e-06 -2.39298e-06
       L  2.83190e-06  9.57930e-07  2.57866e-06
5
# CELL(abcABC):  459.05226   459.05226   459.05226    90.00000    90.00000    90.00000  Step:           6  Bead:       0 x_centroid{angstrom}  cell{atomic_unit}
       C -1.59922e-01  1.30173e-08  2.29258e-08
       O -1.30438e+00  2.62727e-08  1.44634e-08
       S  1.46431e+00 -1.80379e-08 -1.58072e-08
       L  1.46372e-01  2.06528e-06 -2.63755e-06
       L  3.06050e-06  1.05185e-06  2.84220e-06
5
# CELL(abcABC):  459.05226   459.05226   459.05226    90.00000    90.00000    90.00000  Step:           7  Bead:       0 x_centroid{angstrom}  cell{atomic_unit}
       C -1.59914e-01  1.50912e-08  2.66573e-08
       O -1.30438e+00  3.06934e-08  1.69137e-08
       S  1.46431e+00 -2.10231e-08 -1.84276e-08
       L  1.60062e-01  2.16989e-06 -2.77113e-06
       L  3.15219e-06  1.09951e-06  2.98615e-06
5
# CELL(abcABC):  459.05226   459.05226   459.05226    90.00000    90.00000    90.00000  Step:           8  Bead:       0 x_centroid{angstrom}  cell{atomic_unit}
       C -1.59908e-01  1.71272e-08  3.03480e-08
       O -1.30438e+00  3.51307e-08  1.93821e-08
       S  1.46431e+00 -2.39999e-08 -2.10416e-08
       L  1.74043e-01  2.18319e-06 -2.78811e-06
       L  3.10859e-06  1.09863e-06  3.00445e-06
5
# CELL(abcABC):  459.05226   459.05226   459.05226    90.00000    90.00000    90.00000  Step:           9  Bead:       0 x_centroid{angstrom}  cell{atomic_unit}
       C -1.59902e-01  1.91243e-08  3.39921e-08
       O -1.30438e+00  3.95851e-08  2.18711e-08
       S  1.46430e+00 -2.69683e-08 -2.36483e-08
       L  1.87708e-01  2.10462e-06 -2.68777e-06
       L  2.93707e-06  1.04898e-06  2.89632e-06
5
# CELL(abcABC):  459.05226   459.05226   459.05226    90.00000    90.00000    90.00000  Step:          10  Bead:       0 x_centroid{angstrom}  cell{atomic_unit}
       C -1.59899e-01  2.10825e-08  3.75842e-08
       O -1.30438e+00  4.40566e-08  2.43831e-08
       S  1.46430e+00 -2.99283e-08 -2.62469e-08
       L  2.00465e-01  1.93750e-06 -2.47434e-06
       L  2.65024e-06  9.52399e-07  2.66633e-06
5
# CELL(abcABC):  459.05226   459.05226   459.05226    90.00000    90.00000    90.00000  Step:          11  Bead:       0 x_centroid{angstrom}  cell{atomic_unit}
       C -1.59897e-01  2.30030e-08  4.11190e-08
       O -1.30437e+00  4.85446e-08  2.69205e-08
       S  1.46430e+00 -3.28803e-08 -2.88365e-08
       L  2.11772e-01  1.68886e-06 -2.15679e-06
       L  2.26516e-06  8.12728e-07  2.32414e-06
5
# CELL(abcABC):  459.05226   459.05226   459.05226    90.00000    90.00000    90.00000  Step:          12  Bead:       0 x_centroid{angstrom}  cell{atomic_unit}
       C -1.59898e-01  2.48882e-08  4.45911e-08
       O -1.30437e+00  5.30481e-08  2.94856e-08
       S  1.46430e+00 -3.58249e-08 -3.14163e-08
       L  2.21152e-01  1.36915e-06 -1.74848e-06
       L  1.80235e-06  6.35635e-07  1.88415e-06
5
# CELL(abcABC):  459.05226   459.05226   459.05226    90.00000    90.00000    90.00000  Step:          13  Bead:       0 x_centroid{angstrom}  cell{atomic_unit}
       C -1.59902e-01  2.67416e-08  4.79954e-08
       O -1.30436e+00  5.75655e-08  3.20806e-08
       S  1.46430e+00 -3.87631e-08 -3.39856e-08
       L  2.28219e-01  9.91830e-07 -1.26660e-06
       L  1.28482e-06  4.28382e-07  1.36489e-06
5
# CELL(abcABC):  459.05226   459.05226   459.05226    90.00000    90.00000    90.00000  Step:          14  Bead:       0 x_centroid{angstrom}  cell{atomic_unit}
       C -1.59908e-01  2.85674e-08  5.13270e-08
       O -1.30435e+00  6.20951e-08  3.47077e-08
       S  1.46429e+00 -4.16960e-08 -3.65436e-08
       L  2.32695e-01  5.72777e-07 -7.31427e-07
       L  7.36891e-07  1.99514e-07  7.88186e-07
5
# CELL(abcABC):  459.05226   459.05226   459.05226    90.00000    90.00000    90.00000  Step:          15  Bead:       0 x_centroid{angstrom}  cell{atomic_unit}
       C -1.59917e-01  3.03705e-08  5.45811e-08
       O -1.30435e+00  6.66346e-08  3.73689e-08
       S  1.46429e+00 -4.46246e-08 -3.90895e-08
       L  2.34418e-01  1.29622e-07 -1.65475e-07
       L  1.83087e-07 -4.14999e-08  1.78321e-07
5
# CELL(abcABC):  459.05226   459.05226   459.05226    90.00000    90.00000    90.00000  Step:          16  Bead:       0 x_centroid{angstrom}  cell{atomic_unit}
       C -1.59927e-01  3.21559e-08  5.77531e-08
       O -1.30434e+00  7.11820e-08  4.00664e-08
       S  1.46429e+00 -4.75505e-08 -4.16228e-08
       L  2.33353e-01 -3.18986e-07  4.07439e-07
       L -3.52950e-07 -2.84670e-07 -4.39046e-07
5
# CELL(abcABC):  459.05226   459.05226   459.05226    90.00000    90.00000    90.00000  Step:          17  Bead:       0 x_centroid{angstrom}  cell{atomic_unit}
       C -1.59939e-01  3.39291e-08  6.08384e-08
       O -1.30433e+00  7.57348e-08  4.28020e-08
       S  1.46429e+00 -5.04748e-08 -4.41426e-08
       L  2.29584e-01 -7.54172e-07  9.63209e-07
       L -8.49459e-07 -5.19905e-07 -1.03794e-06
5
# CELL(abcABC):  459.05226   459.05226   459.05226    90.00000    90.00000    90.00000  Step:          18  Bead:       0 x_centroid{angstrom}  cell{atomic_unit}
       C -1.59951e-01  3.56950e-08  6.38328e-08
       O -1.30432e+00  8.02909e-08  4.55775e-08
       S  1.46429e+00 -5.33989e-08 -4.66484e-08
       L  2.23319e-01 -1.15762e-06  1.47845e-06
       L -1.28742e-06 -7.37446e-07 -1.59316e-06
5
# CELL(abcABC):  459.05226   459.05226   459.05226    90.00000    90.00000    90.00000  Step:          19  Bead:       0 x_centroid{angstrom}  cell{atomic_unit}
       C -1.59964e-01  3.74583e-08  6.67323e-08
       O -1.30431e+00  8.48481e-08  4.83948e-08
       S  1.46429e+00 -5.63238e-08 -4.91395e-08
       L  2.14869e-01 -1.51237e-06  1.93148e-06
       L -1.65126e-06 -9.28271e-07 -2.08134e-06
5
# CELL(abcABC):  459.05226   459.05226   459.05226    90.00000    90.00000    90.00000  Step:          20  Bead:       0 x_centroid{angstrom}  cell{atomic_unit}
       C -1.59975e-01  3.92231e-08  6.95331e-08
       O -1.30430e+00  8.94048e-08  5.12555e-08
       S  1.46429e+00 -5.92508e-08 -5.16154e-08
       L  2.04637e-01 -1.80347e-06  2.30324e-06
       L -1.92936e-06 -1.08449e-06 -2.48194e-06
5
# CELL(abcABC):  459.05226   459.05226   459.05226    90.00000    90.00000    90.00000  Step:          21  Bead:       0 x_centroid{angstrom}  cell{atomic_unit}
       C -1.59985e-01  4.09926e-08  7.22314e-08
       O -1.30429e+00  9.39595e-08  5.41612e-08
       S  1.46429e+00 -6.21805e-08 -5.40755e-08
       L  1.93100e-01 -2.01869e-06  2.57808e-06
       L -2.11435e-06 -1.19965e-06 -2.77811e-06
5
# CELL(abcABC):  459.05226   459.05226   459.05226    90.00000    90.00000    90.00000  Step:          22  Bead:       0 x_centroid{angstrom}  cell{atomic_unit}
       C -1.59993e-01  4.27689e-08  7.48240e-08
       O -1.30428e+00  9.85113e-08  5.71133e-08
       S  1.46429e+00 -6.51136e-08 -5.65194e-08
       L  1.80782e-01 -2.14897e-06  2.74444e-06
       L -2.20323e-06 -1.26905e-06 -2.95738e-06
5
# CELL(abcABC):  459.05226   459.05226   459.05226    90.00000    90.00000    90.00000  Step:          23  Bead:       0 x_centroid{angstrom}  cell{atomic_unit}
       C -1.59998e-01  4.45531e-08  7.73076e-08
       O -1.30428e+00  1.03060e-07  6.01133e-08
       S  1.46429e+00 -6.80503e-08 -5.89464e-08
       L  1.68229e-01 -2.18883e-06  2.79531e-06
       L -2.19727e-06 -1.28991e-06 -3.01221e-06
5
# CELL(abcABC):  459.05226   459.05226   459.05226    90.00000    90.00000    90.00000  Step:          24  Bead:       0 x_centroid{angstrom}  cell{atomic_unit}
       C -1.59999e-01  4.63451e-08  7.96793e-08
       O -1.30428e+00  1.07605e-07  6.31624e-08
       S  1.46429e+00 -7.09907e-08 -6.13562e-08
       L  1.55988e-01 -2.13658e-06  2.72857e-06
       L -2.10170e-06 -1.26150e-06 -2.94029e-06
5
# CELL(abcABC):  459.05226   459.05226   459.05226    90.00000    90.00000    90.00000  Step:          25  Bead:       0 x_centroid{angstrom}  cell{atomic_unit}
       C -1.59996e-01  4.81434e-08  8.19366e-08
       O -1.30428e+00  1.12147e-07  6.62618e-08
       S  1.46429e+00 -7.39345e-08 -6.37484e-08
       L  1.44580e-01 -1.99443e-06  2.54701e-06
       L -1.92530e-06 -1.18515e-06 -2.74465e-06
5
# CELL(abcABC):  459.05226   459.05226   459.05226    90.00000    90.00000    90.00000  Step:          26  Bead:       0 x_centroid{angstrom}  cell{atomic_unit}
       C -1.59989e-01  4.99455e-08  8.40769e-08
       O -1.30428e+00  1.16688e-07  6.94125e-08
       S  1.46429e+00 -7.68811e-08 -6.61225e-08
       L  1.34474e-01 -1.76836e-06  2.25828e-06
       L -1.67978e-06 -1.06424e-06 -2.43352e-06
5
# CELL(abcABC):  459.05226   459.05226   459.05226    90.00000    90.00000    90.00000  Step:          27  Bead:       0 x_centroid{angstrom}  cell{atomic_unit}
       C -1.59978e-01  5.17479e-08  8.60982e-08
       O -1.30429e+00  1.21229e-07  7.26156e-08
       S  1.46429e+00 -7.98298e-08 -6.84783e-08
       L  1.26071e-01 -1.46789e-06  1.87453e-06
       L -1.37913e-06 -9.03990e-07 -2.01999e-06
5
# CELL(abcABC):  459.05226   459.05226   459.05226    90.00000    90.00000    90.00000  Step:          28  Bead:       0 x_centroid{angstrom}  cell{atomic_unit}
       C -1.59963e-01  5.35458e-08  8.79986e-08
       O -1.30430e+00  1.25772e-07  7.58718e-08
       S  1.46429e+00 -8.27794e-08 -7.08154e-08
       L  1.19686e-01 -1.10564e-06  1.41190e-06
       L -1.03887e-06 -7.11302e-07 -1.52146e-06
5
# CELL(abcABC):  459.05226   459.05226   459.05226    90.00000    90.00000    90.00000  Step:          29  Bead:       0 x_centroid{angstrom}  cell{atomic_unit}
       C -1.59945e-01  5.53341e-08  8.97765e-08
       O -1.30431e+00  1.30319e-07  7.91819e-08
       S  1.46429e+00 -8.57288e-08 -7.31336e-08
       L  1.15533e-01 -6.96878e-07  8.89856e-07
       L -6.75284e-07 -4.94431e-07 -9.58914e-07
5
# CELL(abcABC):  459.05226   459.05226   459.05226    90.00000    90.00000    90.00000  Step:          30  Bead:       0 x_centroid{angstrom}  cell{atomic_unit}
       C -1.59924e-01  5.71069e-08  9.14305e-08
       O -1.30432e+00  1.34873e-07  8.25464e-08
       S  1.46429e+00 -8.86765e-08 -7.54327e-08
       L  1.13722e-01 -2.58790e-07  3.30371e-07
       L -3.04665e-07 -2.62643e-07 -3.56018e-07
5
# CELL(abcABC):  459.05226   459.05226   459.05226    90.00000    90.00000    90.00000  Step:          31  Bead:       0 x_centroid{angstrom}  cell{atomic_unit}
       C -1.59901e-01  5.88578e-08  9.29596e-08
       O -1.30433e+00  1.39437e-07  8.59660e-08
       S  1.46428e+00 -9.16211e-08 -7.77124e-08
       L  1.14253e-01  1.90187e-07 -2.43016e-07
       L  5.73801e-08 -2.58234e-08  2.61859e-07
5
# CELL(abcABC):  459.05226   459.05226   459.05226    90.00000    90.00000    90.00000  Step:          32  Bead:       0 x_centroid{angstrom}  cell{atomic_unit}
       C -1.59877e-01  6.05807e-08  9.43632e-08
       O -1.30435e+00  1.44013e-07  8.94409e-08
       S  1.46428e+00 -9.45612e-08 -7.99726e-08
       L  1.17024e-01  6.31162e-07 -8.06177e-07
       L  3.96565e-07  2.05941e-07  8.68717e-07
5
# CELL(abcABC):  459.05226   459.05226   459.05226    90.00000    90.00000    90.00000  Step:          33  Bead:       0 x_centroid{angstrom}  cell{atomic_unit}
       C -1.59854e-01  6.22696e-08  9.56406e-08
       O -1.30436e+00  1.48604e-07  9.29714e-08
       S  1.46428e+00 -9.74952e-08 -8.22134e-08
       L  1.21833e-01  1.04558e-06 -1.33542e-06
       L  7.00453e-07  4.22791e-07  1.43902e-06
5
# CELL(abcABC):  459.05226   459.05226   459.05226    90.00000    90.00000    90.00000  Step:          34  Bead:       0 x_centroid{angstrom}  cell{atomic_unit}
       C -1.59832e-01  6.39187e-08  9.67917e-08
       O -1.30437e+00  1.53212e-07  9.65576e-08
       S  1.46428e+00 -1.00422e-07 -8.44345e-08
       L  1.28394e-01  1.41600e-06 -1.80846e-06
       L  9.58866e-07  6.15512e-07  1.94877e-06
5
# CELL(abcABC):  459.05226   459.05226   459.05226    90.00000    90.00000    90.00000  Step:          35  Bead:       0 x_centroid{angstrom}  cell{atomic_unit}
       C -1.59812e-01  6.55233e-08  9.78166e-08
       O -1.30438e+00  1.57840e-07  1.00199e-07
       S  1.46427e+00 -1.03340e-07 -8.66360e-08
       L  1.36353e-01  1.72684e-06 -2.20541e-06
       L  1.16417e-06  7.75924e-07  2.37653e-06
5
# CELL(abcABC):  459.05226   459.05226   459.05226    90.00000    90.00000    90.00000  Step:          36  Bead:       0 x_centroid{angstrom}  cell{atomic_unit}
       C -1.59796e-01  6.70792e-08  9.87157e-08
       O -1.30439e+00  1.62489e-07  1.03897e-07
       S  1.46427e+00 -1.06249e-07 -8.88180e-08
       L  1.45306e-01  1.96502e-06 -2.50956e-06
       L  1.31141e-06  8.97230e-07  2.70428e-06
5
# CELL(abcABC):  459.05226   459.05226   459.05226    90.00000    90.00000    90.00000  Step:          37  Bead:       0 x_centroid{angstrom}  cell{atomic_unit}
       C -1.59784e-01  6.85836e-08  9.94896e-08
       O -1.30439e+00  1.67161e-07  1.07650e-07
       S  1.46427e+00 -1.09147e-07 -9.09806e-08
       L  1.54818e-01  2.12051e-06 -2.70811e-06
       L  1.39836e-06  9.74301e-07  2.91824e-06
5
# CELL(abcABC):  459.05226   459.05226   459.05226    90.00000    90.00000    90.00000  Step:          38  Bead:       0 x_centroid{angstrom}  cell{atomic_unit}
       C -1.59777e-01  7.00346e-08  1.00139e-07
       O -1.30440e+00  1.71856e-07  1.11457e-07
       S  1.46427e+00 -1.12035e-07 -9.31238e-08
       L  1.64449e-01  2.18678e-06 -2.79271e-06
       L  1.42539e-06  1.00389e-06  3.00941e-06
5
# CELL(abcABC):  459.05226   459.05226   459.05226    90.00000    90.00000    90.00000  Step:          39  Bead:       0 x_centroid{angstrom}  cell{atomic_unit}
       C -1.59775e-01  7.14318e-08  1.00666e-07
       O -1.30439e+00  1.76575e-07  1.15319e-07
       S  1.46426e+00 -1.14912e-07 -9.52479e-08
       L  1.73771e-01  2.16104e-06 -2.75980e-06
       L  1.39527e-06  9.84782e-07  2.97394e-06
5
# CELL(abcABC):  459.05226   459.05226   459.05226    90.00000    90.00000    90.00000  Step:          40  Bead:       0 x_centroid{angstrom}  cell{atomic_unit}
       C -1.59779e-01  7.27761e-08  1.01071e-07
       O -1.30439e+00  1.81317e-07  1.19235e-07
       S  1.46426e+00 -1.17778e-07 -9.73530e-08
       L  1.82388e-01  2.04436e-06 -2.61076e-06
       L  1.31287e-06  9.17825e-07  2.81334e-06
5
# CELL(abcABC):  459.05226   459.05226   459.05226    90.00000    90.00000    90.00000  Step:          41  Bead:       0 x_centroid{angstrom}  cell{atomic_unit}
       C -1.59789e-01  7.40695e-08  1.01356e-07
       O -1.30438e+00  1.86081e-07  1.23203e-07
       S  1.46426e+00 -1.20634e-07 -9.94395e-08
       L  1.89956e-01  1.84166e-06 -2.35186e-06
       L  1.18480e-06  8.05914e-07  2.53436e-06
5
# CELL(abcABC):  459.05226   459.05226   459.05226    90.00000    90.00000    90.00000  Step:          42  Bead:       0 x_centroid{angstrom}  cell{atomic_unit}
       C -1.59804e-01  7.53152e-08  1.01523e-07
       O -1.30437e+00  1.90866e-07  1.27224e-07
       S  1.46426e+00 -1.23481e-07 -1.01508e-07
       L  1.96196e-01  1.56147e-06 -1.99401e-06
       L  1.01901e-06  6.53853e-07  2.14874e-06
5
# CELL(abcABC):  459.05226   459.05226   459.05226    90.00000    90.00000    90.00000  Step:          43  Bead:       0 x_centroid{angstrom}  cell{atomic_unit}
       C -1.59824e-01  7.65178e-08  1.01574e-07
       O -1.30435e+00  1.95670e-07  1.31295e-07
       S  1.46426e+00 -1.26319e-07 -1.03558e-07
       L  2.00904e-01  1.21558e-06 -1.55224e-06
       L  8.24338e-07  4.68160e-07  1.67270e-06
5
# CELL(abcABC):  459.05226   459.05226   459.05226    90.00000    90.00000    90.00000  Step:          44  Bead:       0 x_centroid{angstrom}  cell{atomic_unit}
       C -1.59848e-01  7.76823e-08  1.01513e-07
       O -1.30434e+00  2.00490e-07  1.35417e-07
       S  1.46426e+00 -1.29150e-07 -1.05591e-07
       L  2.03957e-01  8.18534e-07 -1.04516e-06
       L  6.10082e-07  2.56787e-07  1.12628e-06
5
# CELL(abcABC):  459.05226   459.05226   459.05226    90.00000    90.00000    90.00000  Step:          45  Bead:       0 x_centroid{angstrom}  cell{atomic_unit}
       C -1.59875e-01  7.88149e-08  1.01341e-07
       O -1.30432e+00  2.05325e-07  1.39587e-07
       S  1.46426e+00 -1.31976e-07 -1.07606e-07
       L  2.05318e-01  3.87050e-07 -4.94107e-07
       L  3.85606e-07  2.87821e-08  5.32465e-07
5
# CELL(abcABC):  459.05226   459.05226   459.05226    90.00000    90.00000    90.00000  Step:          46  Bead:       0 x_centroid{angstrom}  cell{atomic_unit}
       C -1.59904e-01  7.99219e-08  1.01061e-07
       O -1.30430e+00  2.10171e-07  1.43804e-07
       S  1.46427e+00 -1.34796e-07 -1.09605e-07
       L  2.05032e-01 -6.07213e-08  7.77408e-08
       L  1.59950e-07 -2.06091e-07 -8.37534e-08
5
# CELL(abcABC):  459.05226   459.05226   459.05226    90.00000    90.00000    90.00000  Step:          47  Bead:       0 x_centroid{angstrom}  cell{atomic_unit}
       C -1.59934e-01  8.10100e-08  1.00677e-07
       O -1.30428e+00  2.15025e-07  1.48068e-07
       S  1.46427e+00 -1.37614e-07 -1.11588e-07
       L  2.03217e-01 -5.05937e-07  6.46318e-07
       L -5.84846e-08 -4.37769e-07 -6.96448e-07
5
# CELL(abcABC):  459.05226   459.05226   459.05226    90.00000    90.00000    90.00000  Step:          48  Bead:       0 x_centroid{angstrom}  cell{atomic_unit}
       C -1.59963e-01  8.20857e-08  1.00192e-07
       O -1.30426e+00  2.19885e-07  1.52376e-07
       S  1.46427e+00 -1.40431e-07 -1.13555e-07
       L  2.00061e-01 -9.29864e-07  1.18770e-06
       L -2.62207e-07 -6.56313e-07 -1.27984e-06
5
# CELL(abcABC):  459.05226   459.05226   459.05226    90.00000    90.00000    90.00000  Step:          49  Bead:       0 x_centroid{angstrom}  cell{atomic_unit}
       C -1.59990e-01  8.31554e-08  9.96094e-08
       O -1.30425e+00  2.24748e-07  1.56727e-07
       S  1.46427e+00 -1.43248e-07 -1.15507e-07
       L  1.95803e-01 -1.31467e-06  1.67910e-06
       L -4.44828e-07 -8.52333e-07 -1.80937e-06
5
# CELL(abcABC):  459.05226   459.05226   459.05226    90.00000    90.00000    90.00000  Step:          50  Bead:       0 x_centroid{angstrom}  cell{atomic_unit}
       C -1.60014e-01  8.42249e-08  9.89335e-08
       O -1.30423e+00  2.29611e-07  1.61119e-07
       S  1.46427e+00 -1.46067e-07 -1.17445e-07
       L  1.90719e-01 -1.64415e-06  2.09986e-06
       L -6.01197e-07 -1.01738e-06 -2.26277e-06
5
# CELL(abcABC):  459.05226   459.05226   459.05226    90.00000    90.00000    90.00000  Step:          51  Bead:       0 x_centroid{angstrom}  cell{atomic_unit}
       C -1.60033e-01  8.52992e-08  9.81682e-08
       O -1.30422e+00  2.34473e-07  1.65551e-07
       S  1.46428e+00 -1.48888e-07 -1.19369e-07
       L  1.85109e-01 -1.90445e-06  2.43225e-06
       L -7.27466e-07 -1.14432e-06 -2.62096e-06
5
# CELL(abcABC):  459.05226   459.05226   459.05226    90.00000    90.00000    90.00000  Step:          52  Bead:       0 x_centroid{angstrom}  cell{atomic_unit}
       C -1.60047e-01  8.63824e-08  9.73176e-08
       O -1.30422e+00  2.39330e-07  1.70020e-07
       S  1.46428e+00 -1.51713e-07 -1.21280e-07
       L  1.79278e-01 -2.08462e-06  2.66230e-06
       L -8.21101e-07 -1.22759e-06 -2.86886e-06
5
# CELL(abcABC):  459.05226   459.05226   459.05226    90.00000    90.00000    90.00000  Step:          53  Bead:       0 x_centroid{angstrom}  cell{atomic_unit}
       C -1.60054e-01  8.74776e-08  9.63862e-08
       O -1.30421e+00  2.44183e-07  1.74524e-07
       S  1.46428e+00 -1.54543e-07 -1.23178e-07
       L  1.73518e-01 -2.17707e-06  2.78032e-06
       L -8.80840e-07 -1.26352e-06 -2.99605e-06
5
# CELL(abcABC):  459.05226   459.05226   459.05226    90.00000    90.00000    90.00000  Step:          54  Bead:       0 x_centroid{angstrom}  cell{atomic_unit}
       C -1.60055e-01  8.85866e-08  9.53786e-08
       O -1.30422e+00  2.49030e-07  1.79062e-07
       S  1.46428e+00 -1.57376e-07 -1.25065e-07
       L  1.68097e-01 -2.17791e-06  2.78135e-06
       L -9.06610e-07 -1.25038e-06 -2.99717e-06
5
# CELL(abcABC):  459.05226   459.05226   459.05226    90.00000    90.00000    90.00000  Step:          55  Bead:       0 x_centroid{angstrom}  cell{atomic_unit}
       C -1.60050e-01  8.97102e-08  9.42998e-08
       O -1.30422e+00  2.53871e-07  1.83632e-07
       S  1.46428e+00 -1.60215e-07 -1.26941e-07
       L  1.63244e-01 -2.08712e-06  2.66535e-06
       L -8.99414e-07 -1.18855e-06 -2.87217e-06
5
# CELL(abcABC):  459.05226   459.05226   459.05226    90.00000    90.00000    90.00000  Step:          56  Bead:       0 x_centroid{angstrom}  cell{atomic_unit}
       C -1.60038e-01  9.08480e-08  9.31547e-08
       O -1.30423e+00  2.58705e-07  1.88230e-07
       S  1.46428e+00 -1.63059e-07 -1.28807e-07
       L  1.59138e-01 -1.90850e-06  2.43720e-06
       L -8.61195e-07 -1.08044e-06 -2.62632e-06
5
# CELL(abcABC):  459.05226   459.05226   459.05226    90.00000    90.00000    90.00000  Step:          57  Bead:       0 x_centroid{angstrom}  cell{atomic_unit}
       C -1.60020e-01  9.19983e-08  9.19485e-08
       O -1.30425e+00  2.63535e-07  1.92856e-07
       S  1.46428e+00 -1.65906e-07 -1.30664e-07
       L  1.55903e-01 -1.64958e-06  2.10649e-06
       L -7.94696e-07 -9.30427e-07 -2.26995e-06
5
# CELL(abcABC):  459.05226   459.05226   459.05226    90.00000    90.00000    90.00000  Step:          58  Bead:       0 x_centroid{angstrom}  cell{atomic_unit}
       C -1.59997e-01  9.31585e-08  9.06866e-08
       O -1.30427e+00  2.68360e-07  1.97506e-07
       S  1.46428e+00 -1.68757e-07 -1.32512e-07
       L  1.53605e-01 -1.32124e-06  1.68714e-06
       L -7.03310e-07 -7.44637e-07 -1.81807e-06
5
# CELL(abcABC):  459.05226   459.05226   459.05226    90.00000    90.00000    90.00000  Step:          59  Bead:       0 x_centroid{angstrom}  cell{atomic_unit}
       C -1.59970e-01  9.43252e-08  8.93745e-08
       O -1.30429e+00  2.73183e-07  2.02178e-07
       S  1.46429e+00 -1.71611e-07 -1.34352e-07
       L  1.52250e-01 -9.37318e-07  1.19681e-06
       L -5.90942e-07 -5.30716e-07 -1.28969e-06
5
# CELL(abcABC):  459.05226   459.05226   459.05226    90.00000    90.00000    90.00000  Step:          60  Bead:       0 x_centroid{angstrom}  cell{atomic_unit}
       C -1.59939e-01  9.54942e-08  8.80178e-08
       O -1.30431e+00  2.78004e-07  2.06870e-07
       S  1.46429e+00 -1.74465e-07 -1.36186e-07
       L  1.51790e-01 -5.13951e-07  6.56111e-07
       L -4.61875e-07 -2.97493e-07 -7.07045e-07
5
# CELL(abcABC):  459.05226   459.05226   459.05226    90.00000    90.00000    90.00000  Step:          61  Bead:       0 x_centroid{angstrom}  cell{atomic_unit}
       C -1.59908e-01  9.66610e-08  8.66224e-08
       O -1.30434e+00  2.82827e-07  2.11579e-07
       S  1.46429e+00 -1.77321e-07 -1.38013e-07
       L  1.52126e-01 -6.89580e-08  8.78070e-08
       L -3.20652e-07 -5.46048e-08 -9.46460e-08
5
# CELL(abcABC):  459.05226   459.05226   459.05226    90.00000    90.00000    90.00000  Step:          62  Bead:       0 x_centroid{angstrom}  cell{atomic_unit}
       C -1.59876e-01  9.78209e-08  8.51941e-08
       O -1.30436e+00  2.87653e-07  2.16302e-07
       S  1.46429e+00 -1.80175e-07 -1.39836e-07
       L  1.53123e-01  3.78936e-07 -4.84192e-07
       L -1.71970e-07  1.87905e-07  5.21736e-07
5
# CELL(abcABC):  459.05226   459.05226   459.05226    90.00000    90.00000    90.00000  Step:          63  Bead:       0 x_centroid{angstrom}  cell{atomic_unit}
       C -1.59845e-01  9.89689e-08  8.37390e-08
       O -1.30438e+00  2.92483e-07  2.21038e-07
       S  1.46429e+00 -1.83026e-07 -1.41654e-07
       L  1.54617e-01  8.10886e-07 -1.03582e-06
       L -2.05837e-08  4.20013e-07  1.11616e-06
5
# CELL(abcABC):  459.05226   459.05226   459.05226    90.00000    90.00000    90.00000  Step:          64  Bead:       0 x_centroid{angstrom}  cell{atomic_unit}
       C -1.59818e-01  1.00101e-07  8.22629e-08
       O -1.30441e+00  2.97321e-07  2.25782e-07
       S  1.46429e+00 -1.85874e-07 -1.43469e-07
       L  1.56426e-01  1.20872e-06 -1.54386e-06
       L  1.28781e-07  6.32139e-07  1.66363e-06
5
# CELL(abcABC):  459.05226   459.05226   459.05226    90.00000    90.00000    90.00000  Step:          65  Bead:       0 x_centroid{angstrom}  cell{atomic_unit}
       C -1.59794e-01  1.01213e-07  8.07721e-08
       O -1.30442e+00  3.02167e-07  2.30533e-07
       S  1.46429e+00 -1.88718e-07 -1.45282e-07
       L  1.58370e-01  1.55569e-06 -1.98693e-06
       L  2.71506e-07  8.15553e-07  2.14109e-06
5
# CELL(abcABC):  459.05226   459.05226   459.05226    90.00000    90.00000    90.00000  Step:          66  Bead:       0 x_centroid{angstrom}  cell{atomic_unit}
       C -1.59776e-01  1.02301e-07  7.92726e-08
       O -1.30444e+00  3.07024e-07  2.35287e-07
       S  1.46429e+00 -1.91556e-07 -1.47093e-07
       L  1.60274e-01  1.83720e-06 -2.34641e-06
       L  4.03161e-07  9.62737e-07  2.52845e-06
5
# CELL(abcABC):  459.05226   459.05226   459.05226    90.00000    90.00000    90.00000  Step:          67  Bead:       0 x_centroid{angstrom}  cell{atomic_unit}
       C -1.59764e-01  1.03364e-07  7.77706e-08
       O -1.30445e+00  3.11891e-07  2.40043e-07
       S  1.46429e+00 -1.94388e-07 -1.48903e-07
       L  1.61989e-01  2.04140e-06 -2.60714e-06
       L  5.19589e-07  1.06771e-06  2.80943e-06
5
# CELL(abcABC):  459.05226   459.05226   459.05226    90.00000    90.00000    90.00000  Step:          68  Bead:       0 x_centroid{angstrom}  cell{atomic_unit}
       C -1.59759e-01  1.04399e-07  7.62720e-08
       O -1.30446e+00  3.16770e-07  2.44797e-07
       S  1.46429e+00 -1.97213e-07 -1.50714e-07
       L  1.63393e-01  2.15971e-06 -2.75818e-06
       L  6.16984e-07  1.12628e-06  2.97219e-06
5
# CELL(abcABC):  459.05226   459.05226   459.05226    90.00000    90.00000    90.00000  Step:          69  Bead:       0 x_centroid{angstrom}  cell{atomic_unit}
       C -1.59761e-01  1.05408e-07  7.47829e-08
       O -1.30446e+00  3.21660e-07  2.49547e-07
       S  1.46429e+00 -2.00032e-07 -1.52526e-07
       L  1.64406e-01  2.18714e-06 -2.79315e-06
       L  6.91993e-07  1.13620e-06  3.00988e-06
5
# CELL(abcABC):  459.05226   459.05226   459.05226    90.00000    90.00000    90.00000  Step:          70  Bead:       0 x_centroid{angstrom}  cell{atomic_unit}
       C -1.59771e-01  1.06391e-07  7.33093e-08
       O -1.30445e+00  3.26561e-07  2.54289e-07
       S  1.46429e+00 -2.02844e-07 -1.54341e-07
       L  1.64989e-01  2.12255e-06 -2.71060e-06
       L  7.41809e-07  1.09730e-06  2.92093e-06
5
# CELL(abcABC):  459.05226   459.05226   459.05226    90.00000    90.00000    90.00000  Step:          71  Bead:       0 x_centroid{angstrom}  cell{atomic_unit}
       C -1.59787e-01  1.07350e-07  7.18571e-08
       O -1.30444e+00  3.31473e-07  2.59022e-07
       S  1.46429e+00 -2.05649e-07 -1.56158e-07
       L  1.65149e-01  1.96864e-06 -2.51398e-06
       L  7.64278e-07  1.01147e-06  2.70906e-06
5
# CELL(abcABC):  459.05226   459.05226   459.05226    90.00000    90.00000    90.00000  Step:          72  Bead:       0 x_centroid{angstrom}  cell{atomic_unit}
       C -1.59809e-01  1.08289e-07  7.04321e-08
       O -1.30443e+00  3.36393e-07  2.63743e-07
       S  1.46430e+00 -2.08449e-07 -1.57979e-07
       L  1.64935e-01  1.73189e-06 -2.21159e-06
       L  7.58000e-07  8.82576e-07  2.38321e-06
5
# CELL(abcABC):  459.05226   459.05226   459.05226    90.00000    90.00000    90.00000  Step:          73  Bead:       0 x_centroid{angstrom}  cell{atomic_unit}
       C -1.59836e-01  1.09212e-07  6.90398e-08
       O -1.30442e+00  3.41319e-07  2.68450e-07
       S  1.46430e+00 -2.11245e-07 -1.59806e-07
       L  1.64436e-01  1.42228e-06 -1.81613e-06
       L  7.22434e-07  7.16296e-07  1.95707e-06
5
# CELL(abcABC):  459.05226   459.05226   459.05226    90.00000    90.00000    90.00000  Step:          74  Bead:       0 x_centroid{angstrom}  cell{atomic_unit}