LAMMPS Description

4  atoms

3  atom types


0.0 242.92 xlo xhi
0.0 242.92 ylo yhi
0.0 242.92 zlo zhi

Masses

1 1.0080
2 12.0107
3 15.9994

Atoms

1  2 0.17838712   -2.25189993929460      0.04931505367021      0.00000002652444
2  3 -0.45959968   -1.06874695441099      0.10279499107869      0.00000187850978
3  1 0.20237348   -2.86445529044184      0.74165559497667     -0.58043938196244
4  1 0.07883909   -2.79949781585257     -0.69546563972557      0.58043747692823
