6
# CELL(abcABC):  459.05226   459.05226   459.05226    90.00000    90.00000    90.00000  Step:          63  Bead:       0 x_centroid{angstrom}  cell{atomic_unit}
       C -1.29078e-01 -2.08733e-01  1.67275e-01
       O  8.82465e-01  2.26237e-01 -1.55591e-01
       H  1.04063e-01  1.05806e+00 -8.22343e-01
       H -8.21587e-01 -8.72582e-01  6.75505e-01
  L   227.51249736356928   0.00000000000000   0.00000000000000
  L   0.00000000000000   -1.98261196439645   0.00000000000000
