
Host: tao-XPS

Timers On : Tue Dec  6 17:36:46 2022
Timers Off: Tue Dec  6 17:36:49 2022

Wall Time:        3.88 seconds

                                                       Time (seconds)
Module                                       User      System        Wall        Calls

--------------------------------------------------------------------------------------

**************************************************************************************
