<simulation verbosity='medium'>
   <total_steps>2000</total_steps>
   <output prefix='simulation'>
      <properties stride='10' shape='(8)'>
       [ step, time{picosecond}, conserved, temperature{kelvin}, kinetic_cv, 
         potential, volume, pressure_cv{megapascal} ]
      </properties>
      <trajectory format='pdb' filename='pos' stride='10' cell_units='angstrom'>positions{angstrom}</trajectory>
      <checkpoint stride='1000'>0</checkpoint>
   </output>
   <prng>
      <set_pos>624</set_pos>
      <state shape='(624)'>
       [ 32345, 1144945182, 3336160573, 2334850937, 3406601867, 
         2458473389, 1807723281, 2191134039, 826064785, 1483943230, 
         1499500773, 383725055, 1269013671, 3068896139, 2319111707, 
         1819859180, 1648323217, 1560025825, 3589831282, 1772472232, 
         669005505, 2752111418, 3641154862, 4216920024, 3806829695, 
         260249861, 306154515, 227372698, 120786142, 723050931, 
         25089725, 320921008, 1919592080, 4046344278, 4271255211, 
         4140847211, 3993985324, 2740747952, 2183741024, 2035683025, 
         345057336, 2236798529, 237855641, 660876424, 3188873684, 
         2351626139, 2627965067, 346052412, 2761262812, 1279067079, 
         1568764752, 2113919016, 3585948001, 2164987359, 2904417639, 
         777096720, 2376309896, 4028144811, 237221506, 2253427589, 
         426668927, 3772483672, 1360166693, 2354212211, 590194389, 
         3139293002, 3517468586, 1135075056, 1277226585, 1291002109, 
         2943803314, 896233655, 3686164347, 3231582881, 880337972, 
         2470304975, 3089945133, 963843032, 3941428358, 3529637320, 
         101172327, 1543281652, 433235195, 1363307098, 3868961083, 
         2306915181, 404838945, 3242932316, 577836243, 2961646232, 
         3775598876, 1096833174, 2056045295, 1784432195, 466553448, 
         3994600295, 3088161492, 2393414863, 1242206787, 3057583725, 
         2723672367, 2969451558, 3078160026, 958646879, 1325706979, 
         3466457491, 1703304762, 1846395058, 2423378443, 1888333562, 
         3882310773, 3950813437, 692417190, 2638942703, 3031492595, 
         4186078088, 1231364427, 884784295, 1811729753, 2718506031, 
         2397516601, 1715390912, 3775193759, 1719067655, 3508088026, 
         3185431322, 2216960246, 1318032579, 3197076234, 4042652329, 
         1188487060, 3917476684, 2480489903, 2126320326, 2803230729, 
         2703192030, 1128783444, 4054398226, 2225015103, 1801144988, 
         2084402557, 1854060153, 713045478, 3803667021, 4056702806, 
         1006180890, 2801088212, 3773901057, 3307552862, 3048155718, 
         1133908330, 2540970702, 3942967060, 1580956588, 1617060059, 
         1251664029, 1167202856, 2781037514, 533186182, 1756957053, 
         3916962444, 1887568396, 2159985859, 2950031816, 1980258134, 
         526976248, 1524608638, 3894071234, 101269709, 2532263562, 
         3873283154, 541918624, 2646989004, 4122396659, 2041336414, 
         2376750890, 1324403576, 2654144622, 2224561998, 2748843439, 
         1660867317, 572116729, 4173392371, 115194983, 4196365403, 
         3524525937, 2847263412, 2435735689, 1623423635, 3149233751, 
         2139706695, 2897943389, 454075451, 4145110792, 50619161, 
         3413277344, 2789252627, 2861332090, 1377367582, 2389225986, 
         344996552, 1205090737, 3177837370, 3028151779, 119751569, 
         3037282818, 788073166, 44794389, 1088065561, 2650780233, 
         2958588777, 1893856522, 3432354091, 2580065693, 3832518545, 
         2502029169, 262997047, 402987404, 4152557846, 2782309156, 
         89316570, 1943522527, 1926799988, 194754056, 1125194248, 
         518854510, 555097416, 274536011, 2243227515, 752434338, 
         4086669008, 2278266150, 3390970908, 3016142884, 447862248, 
         1828359539, 178901222, 3558113707, 286396470, 2689027133, 
         229100747, 1834577928, 3715958143, 3232138975, 2682450368, 
         4231541887, 1437012450, 1957792390, 3403605819, 1177956881, 
         3533459786, 3291161544, 431604499, 3912508028, 1837143065, 
         799229559, 1298234611, 905039483, 960711305, 1882110480, 
         2256110265, 2349049804, 2967499596, 4116987085, 112737358, 
         3440871887, 1469811334, 2335237966, 2032594440, 4026383258, 
         632218987, 3769878342, 1802800201, 4194689401, 1817329716, 
         3728913148, 3675526831, 1573060337, 2431452614, 3723832171, 
         3586967840, 895751912, 555168418, 850242821, 3342856469, 
         3017336011, 343987563, 49772374, 634985486, 3406663847, 
         2201867734, 664785351, 3653387175, 3914560729, 3781936424, 
         607505950, 1599758590, 931773636, 2025348734, 1959280710, 
         4082654255, 1617160841, 1235636438, 4190237954, 1957311381, 
         4123823765, 2686224480, 2196521437, 4153365807, 1146431377, 
         1555344646, 4078044154, 2987053941, 95493676, 1798993046, 
         2056638414, 2348401895, 3794549910, 1811064071, 2083869341, 
         2625836236, 1601926279, 1958391840, 2999985992, 1009523574, 
         3763535059, 2478378838, 746783083, 3646870399, 2583350581, 
         3360057085, 2849411457, 337347835, 803392340, 1117138290, 
         1706523310, 2161381211, 1196404846, 1860502557, 1011981407, 
         3548023247, 3618278097, 3192989744, 3051724561, 54390487, 
         2820754220, 2627750016, 1704472229, 4235996176, 1226346460, 
         649660559, 3699239114, 2294245805, 450648684, 2387048958, 
         140443087, 1744235279, 2107063275, 3609255608, 1917252654, 
         2415165171, 3355185022, 4079420091, 2178976771, 2827667153, 
         921460140, 1226179146, 1358302214, 3853745971, 1764876129, 
         3436675666, 3791307880, 3724133035, 1867363773, 3356381346, 
         3073571324, 2362937518, 1915494741, 42671006, 3690689745, 
         628587094, 1492470635, 638090320, 2987384079, 1156132001, 
         2973777057, 3141544145, 1475217346, 2372234355, 3005432602, 
         2172211710, 2409706995, 370098845, 3975564922, 2121971783, 
         619850537, 2797795769, 3668876116, 2875578849, 3657331486, 
         2395533569, 3109466816, 1076648476, 3229881348, 587507543, 
         2512688616, 472867048, 4293223711, 1281417636, 3262993586, 
         3399230575, 235678775, 2012734031, 352979043, 2854701997, 
         248153258, 2408272562, 3020411153, 4051544353, 2114252301, 
         3987363936, 473357236, 1864631210, 1557722910, 2477922275, 
         657577582, 1735162128, 1443683936, 3602687729, 1449353511, 
         4097616812, 1503225018, 361353847, 910342564, 1630012262, 
         1248622678, 1737689863, 1662226707, 517529552, 436641479, 
         453387579, 3690349824, 3123500777, 1998688114, 1713841435, 
         1006800639, 2290213721, 4184303526, 767963865, 274149982, 
         619523800, 3884782843, 229244828, 723539537, 3660212411, 
         1104005727, 1208952542, 2917183172, 647425000, 1361198163, 
         2466754598, 541574145, 3963346739, 2556411839, 1435356257, 
         3119580081, 4109779569, 1473592013, 1865113680, 3772734154, 
         2268292131, 2160274396, 445390446, 2995970367, 4079453163, 
         2407937123, 3433141537, 2692549191, 2679569431, 2964042536, 
         885336946, 2653431771, 2249841535, 2064940852, 1570541261, 
         2932048993, 4155586549, 3751263221, 1445842934, 1746877788, 
         3048537243, 4291070792, 2317556099, 1728453330, 2844295725, 
         1406109050, 2846588535, 2290647834, 2712375914, 2061659387, 
         444385942, 230700323, 2168042437, 3144314490, 2338574160, 
         2878451539, 2659419631, 2450173308, 998302386, 3188241463, 
         3948050407, 1894666995, 1963474298, 662967944, 1155771818, 
         3916499322, 3858333633, 2535209871, 3604805031, 3961368507, 
         2026360224, 524700558, 3993816848, 1935925130, 3117782755, 
         2871652818, 1453635870, 2045223498, 575286439, 3854171892, 
         1486145669, 3181232679, 656828333, 3512565334, 4073805471, 
         37005731, 1963207271, 2518635095, 431880867, 1904877418, 
         3057363539, 2816904466, 987969902, 3479406725, 1509856510, 
         1713783228, 1316034227, 782317661, 1934623701, 3681155273, 
         1283015640, 2014701508, 2349850593, 2756235704, 4245506700, 
         1359868822, 3472747455, 1333370713, 3970562022, 3086703752, 
         3665256098, 2502131894, 1271799094, 913635302, 3826902514, 
         3487347530, 3506687747, 692563255, 2507851755, 1909166630, 
         1234733725, 1168125383, 4179298138, 2114423130, 3875005989, 
         486679869, 1483823185, 3073026513, 3246124417, 4270672013, 
         3983777866, 3177467922, 1474046102, 1270207706, 1671638959, 
         1504178159, 908724528, 1573933627, 919043374, 854852467, 
         1279453613, 3643227947, 1197495576, 2520446510, 506768814, 
         1132242425, 2126984492, 273158678, 3300322052, 3777133338, 
         808055861, 2108733506, 1999212489, 2412758083, 3066444033, 
         63708044, 2333658266, 3731755607, 2575839620, 1474708031, 
         3741143768, 860218826, 588432662, 2373618195, 1471321115, 
         795630249, 2028156949, 1127470669, 758528614, 2087690921, 
         682563252, 1327909745, 143308190, 960313285 ]
      </state>
      <seed>32345</seed>
   </prng>
   <ffyaff name='yaff'>
      <yaffsys>init.chk</yaffsys>
      <alpha_scale>  3.20000000e+00</alpha_scale>
      <rcut>  2.83458920e+01</rcut>
      <gcut_scale>  1.50000000e+00</gcut_scale>
      <smooth_ei> True</smooth_ei>
      <yaffpara>pars.txt</yaffpara>
   </ffyaff>
   <system>
      <cell shape='(3, 3)'>
       [   3.12371724e+01,   0.00000000e+00,   0.00000000e+00,   0.00000000e+00,   2.52656380e+01, 
           0.00000000e+00,   0.00000000e+00,   0.00000000e+00,   2.57758640e+01 ]
      </cell>
      <motion mode='dynamics'>
         <dynamics mode='nst'>
            <timestep>  1.03353433e+01</timestep>
            <nmts shape='(1)'> [ 1 ] </nmts>
            <thermostat mode='pile_l'>
               <tau>  4.13413730e+03</tau>
               <pile_lambda>  1.00000000e-01</pile_lambda>
            </thermostat>
            <barostat mode='anisotropic'>
               <tau>  4.13413730e+03</tau>
               <h0 shape='(3, 3)'>
                [   3.12371724e+01,   0.00000000e+00,   0.00000000e+00,   0.00000000e+00,   2.52656380e+01, 
                    0.00000000e+00,   0.00000000e+00,   0.00000000e+00,   2.57758640e+01 ]
               </h0>
               <thermostat mode='langevin'>
                  <tau>  4.13413730e+03</tau>
               </thermostat>
               <p shape='(3, 3)'>
                [   0.00000000e+00,   0.00000000e+00,   0.00000000e+00,   0.00000000e+00,   0.00000000e+00, 
                    0.00000000e+00,   0.00000000e+00,   0.00000000e+00,   0.00000000e+00 ]
               </p>
            </barostat>
         </dynamics>
      </motion>
      <beads natoms='152' nbeads='4'>
         <q shape='(4, 456)'>
          [   1.56168848e+01,  -1.26367281e+01,   1.28933654e+01,   1.56169173e+01,  -6.31875822e+00, 
              1.28933559e+01,  -5.05817316e-04,  -6.31882923e+00,   6.36352414e-03,  -5.38398084e-04, 
             -1.26367487e+01,   6.37261183e-03,   1.82109045e+01,  -1.15884670e+01,   1.52288235e+01, 
              1.56177953e+01,  -9.47774469e+00,   1.12377865e+01,   1.56160545e+01,  -3.15977405e+00, 
              1.45490306e+01,   2.86396634e+01,  -1.15883730e+01,   2.34461052e+01,   1.30202240e+01, 
             -1.15886340e+01,   1.52256722e+01,   2.59500875e+00,  -1.15887110e+01,   2.34474191e+01, 
              1.30203970e+01,  -7.36704033e+00,   1.52258540e+01,   1.30229979e+01,  -5.27070967e+00, 
              1.05579900e+01,   2.59429155e+00,  -5.27074094e+00,   2.34080098e+00,   1.82110838e+01, 
             -7.36679826e+00,   1.52286145e+01,   1.82133260e+01,  -5.27048938e+00,   1.05607921e+01, 
              2.86389126e+01,  -5.27039818e+00,   2.33964102e+00,   2.59498155e+00,  -7.36715466e+00, 
              2.34473599e+01,   1.30231722e+01,  -1.04904928e+00,   1.05577964e+01,   2.59424773e+00, 
             -1.04911394e+00,   2.34085731e+00,   2.86388897e+01,  -1.04874583e+00,   2.33959379e+00, 
              1.82135026e+01,  -1.04886311e+00,   1.05609898e+01,   2.86396255e+01,  -7.36678331e+00, 
              2.34461499e+01,  -2.83608203e-04,  -3.15980560e+00,   2.41251046e+01,   3.12341640e+01, 
             -9.47768369e+00,   1.66186310e+00,   2.44537818e+01,  -7.19734037e+00,   2.01552034e+01, 
              2.55236805e+01,  -9.47754289e+00,   2.10034598e+01,   2.44537068e+01,  -1.17577643e+01, 
              2.01553257e+01,   2.23967849e+01,  -1.17577614e+01,   1.85197304e+01,   2.13268162e+01, 
             -9.47758785e+00,   1.76715482e+01,   2.23968714e+01,  -7.19736520e+00,   1.85195877e+01, 
              1.91098940e+01,  -9.47764805e+00,   1.59020882e+01,   2.77406675e+01,  -9.47757680e+00, 
              2.27728094e+01,   1.21211960e+01,  -9.47784230e+00,   1.58988789e+01,   9.90493524e+00, 
             -9.47790182e+00,   1.76691523e+01,   8.83546772e+00,  -7.19771665e+00,   1.85179959e+01, 
              6.77954717e+00,  -7.19774017e+00,   2.01548663e+01,   5.71011594e+00,  -9.47795590e+00, 
              2.10036288e+01,   6.77951629e+00,  -1.17581633e+01,   2.01547547e+01,   8.83542619e+00, 
             -1.17581301e+01,   1.85178685e+01,   3.49398504e+00,  -9.47794348e+00,   2.27740413e+01, 
              1.21243165e+01,  -3.15986912e+00,   9.88436908e+00,   9.90736924e+00,  -3.15993222e+00, 
              8.11500835e+00,   8.83740244e+00,  -8.79740995e-01,   7.26680368e+00,   6.78041339e+00, 
             -8.79746860e-01,   5.63130284e+00,   5.71034797e+00,  -3.15995551e+00,   4.78330144e+00, 
              6.78035337e+00,  -5.44017235e+00,   5.63141007e+00,   8.83733750e+00,  -5.44014769e+00, 
              7.26693443e+00,   3.49325442e+00,  -3.15993100e+00,   3.01410095e+00,   1.91124425e+01, 
             -3.15967350e+00,   9.88766813e+00,   2.13287314e+01,  -3.15961130e+00,   8.11747589e+00, 
              2.23981805e+01,  -5.43978236e+00,   7.26864117e+00,   2.44542061e+01,  -5.43977004e+00, 
              5.63187398e+00,   2.55237424e+01,  -3.15954991e+00,   4.78320501e+00,   2.44542423e+01, 
             -8.79350555e-01,   5.63200441e+00,   2.23982331e+01,  -8.79386955e-01,   7.26878482e+00, 
              2.77399719e+01,  -3.15956609e+00,   3.01291021e+00,   2.52479181e+01,  -7.21266119e+00, 
              4.99531092e+00,   2.16044054e+01,  -7.21270199e+00,   7.90505889e+00,   2.52479373e+01, 
             -5.42443238e+00,   2.07911835e+01,   2.16028264e+01,  -5.42447231e+00,   1.78834571e+01, 
              1.56172677e+01,  -9.47775117e+00,   9.51112856e+00,   1.56165572e+01,  -3.15977155e+00, 
              1.62757038e+01,  -1.36154766e-05,  -3.15986041e+00,   2.23984344e+01,   3.12338535e+01, 
             -9.47764131e+00,   3.38852783e+00,   9.63143201e+00,  -7.21304214e+00,   7.90301046e+00, 
              5.98614499e+00,  -7.21308723e+00,   4.99549929e+00,   5.98587606e+00,  -5.42485276e+00, 
              2.07914723e+01,   9.62921240e+00,  -5.42482427e+00,   1.78815198e+01,   5.98625135e+00, 
              8.93150160e-01,   4.99529868e+00,   9.63154884e+00,   8.93164464e-01,   7.90277683e+00, 
              9.62913150e+00,  -1.35310079e+01,   1.78812879e+01,   5.98580826e+00,  -1.35310698e+01, 
              2.07912774e+01,   2.16026953e+01,  -1.35306674e+01,   1.78837230e+01,   2.52478148e+01, 
             -1.35306501e+01,   2.07914163e+01,   2.16045028e+01,   8.93508182e-01,   7.90532019e+00, 
              2.52480039e+01,   8.93571736e-01,   4.99553495e+00,   1.56169571e+01,  -7.89041905e-04, 
              1.28933527e+01,   1.56169896e+01,   6.31718079e+00,   1.28933432e+01,  -4.33508837e-04, 
              6.31710978e+00,   6.35086675e-03,  -4.66091494e-04,  -8.09702280e-04,   6.35995445e-03, 
              1.82109768e+01,   1.04747196e+00,   1.52288108e+01,   1.56178676e+01,   3.15819432e+00, 
              1.12377738e+01,   1.56161268e+01,   9.47616496e+00,   1.45490180e+01,   2.86397357e+01, 
              1.04756604e+00,   2.34460925e+01,   1.30202963e+01,   1.04730502e+00,   1.52256595e+01, 
              2.59508106e+00,   1.04722801e+00,   2.34474064e+01,   1.30204693e+01,   5.26889868e+00, 
              1.52258414e+01,   1.30230702e+01,   7.36522934e+00,   1.05579773e+01,   2.59436386e+00, 
              7.36519808e+00,   2.34078832e+00,   1.82111561e+01,   5.26914075e+00,   1.52286018e+01, 
              1.82133983e+01,   7.36544963e+00,   1.05607794e+01,   2.86389849e+01,   7.36554083e+00, 
              2.33962836e+00,   2.59505386e+00,   5.26878435e+00,   2.34473472e+01,   1.30232445e+01, 
              1.15868897e+01,   1.05577838e+01,   2.59432004e+00,   1.15868251e+01,   2.34084465e+00, 
              2.86389620e+01,   1.15871932e+01,   2.33958114e+00,   1.82135749e+01,   1.15870759e+01, 
              1.05609771e+01,   2.86396978e+01,   5.26915570e+00,   2.34461372e+01,  -2.11301614e-04, 
              9.47613341e+00,   2.41250920e+01,   3.12342363e+01,   3.15825532e+00,   1.66185045e+00, 
              2.44538541e+01,   5.43859864e+00,   2.01551907e+01,   2.55237528e+01,   3.15839612e+00, 
              2.10034471e+01,   2.44537791e+01,   8.78174675e-01,   2.01553130e+01,   2.23968572e+01, 
              8.78177568e-01,   1.85197177e+01,   2.13268885e+01,   3.15835116e+00,   1.76715355e+01, 
              2.23969437e+01,   5.43857381e+00,   1.85195751e+01,   1.91099663e+01,   3.15829096e+00, 
              1.59020756e+01,   2.77407398e+01,   3.15836221e+00,   2.27727967e+01,   1.21212683e+01, 
              3.15809671e+00,   1.58988662e+01,   9.90500755e+00,   3.15803719e+00,   1.76691396e+01, 
              8.83554002e+00,   5.43822236e+00,   1.85179833e+01,   6.77961948e+00,   5.43819885e+00, 
              2.01548536e+01,   5.71018825e+00,   3.15798311e+00,   2.10036161e+01,   6.77958860e+00, 
              8.77775700e-01,   2.01547420e+01,   8.83549850e+00,   8.77808950e-01,   1.85178559e+01, 
              3.49405735e+00,   3.15799553e+00,   2.27740286e+01,   1.21243888e+01,   9.47606990e+00, 
              9.88435643e+00,   9.90744154e+00,   9.47600679e+00,   8.11499569e+00,   8.83747475e+00, 
              1.17561980e+01,   7.26679102e+00,   6.78048570e+00,   1.17561922e+01,   5.63129018e+00, 
              5.71042027e+00,   9.47598350e+00,   4.78328878e+00,   6.78042568e+00,   7.19576666e+00, 
              5.63139741e+00,   8.83740980e+00,   7.19579132e+00,   7.26692178e+00,   3.49332673e+00, 
              9.47600801e+00,   3.01408829e+00,   1.91125148e+01,   9.47626551e+00,   9.88765547e+00, 
              2.13288038e+01,   9.47632771e+00,   8.11746323e+00,   2.23982529e+01,   7.19615665e+00, 
              7.26862851e+00,   2.44542784e+01,   7.19616897e+00,   5.63186132e+00,   2.55238147e+01, 
              9.47638910e+00,   4.78319235e+00,   2.44543146e+01,   1.17565885e+01,   5.63199176e+00, 
              2.23983054e+01,   1.17565521e+01,   7.26877216e+00,   2.77400442e+01,   9.47637292e+00, 
              3.01289755e+00,   2.52479904e+01,   5.42327783e+00,   4.99529826e+00,   2.16044777e+01, 
              5.42323702e+00,   7.90504624e+00,   2.52480096e+01,   7.21150663e+00,   2.07911708e+01, 
              2.16028987e+01,   7.21146670e+00,   1.78834444e+01,   1.56173401e+01,   3.15818784e+00, 
              9.51111590e+00,   1.56166295e+01,   9.47616746e+00,   1.62756911e+01,   5.86911132e-05, 
              9.47607861e+00,   2.23984217e+01,   3.12339258e+01,   3.15829770e+00,   3.38851517e+00, 
              9.63150431e+00,   5.42289688e+00,   7.90299781e+00,   5.98621730e+00,   5.42285178e+00, 
              4.99548663e+00,   5.98594837e+00,   7.21108625e+00,   2.07914596e+01,   9.62928470e+00, 
              7.21111474e+00,   1.78815072e+01,   5.98632366e+00,   1.35290892e+01,   4.99528603e+00, 
              9.63162114e+00,   1.35291035e+01,   7.90276417e+00,   9.62920381e+00,  -8.95068937e-01, 
              1.78812753e+01,   5.98588056e+00,  -8.95130830e-01,   2.07912647e+01,   2.16027676e+01, 
             -8.94728420e-01,   1.78837104e+01,   2.52478871e+01,  -8.94711087e-01,   2.07914037e+01, 
              2.16045752e+01,   1.35294472e+01,   7.90530753e+00,   2.52480762e+01,   1.35295107e+01, 
              4.99552229e+00,   1.56168848e+01,  -1.26367281e+01,   1.28933654e+01,   1.56169173e+01, 
             -6.31875822e+00,   1.28933559e+01,  -5.05817316e-04,  -6.31882923e+00,   6.36352414e-03, 
             -5.38398084e-04,  -1.26367487e+01,   6.37261183e-03,   1.82109045e+01,  -1.15884670e+01, 
              1.52288235e+01,   1.56177953e+01,  -9.47774469e+00,   1.12377865e+01,   1.56160545e+01, 
             -3.15977405e+00,   1.45490306e+01,   2.86396634e+01,  -1.15883730e+01,   2.34461052e+01, 
              1.30202240e+01,  -1.15886340e+01,   1.52256722e+01,   2.59500875e+00,  -1.15887110e+01, 
              2.34474191e+01,   1.30203970e+01,  -7.36704033e+00,   1.52258540e+01,   1.30229979e+01, 
             -5.27070967e+00,   1.05579900e+01,   2.59429155e+00,  -5.27074094e+00,   2.34080098e+00, 
              1.82110838e+01,  -7.36679826e+00,   1.52286145e+01,   1.82133260e+01,  -5.27048938e+00, 
              1.05607921e+01,   2.86389126e+01,  -5.27039818e+00,   2.33964102e+00,   2.59498155e+00, 
             -7.36715466e+00,   2.34473599e+01,   1.30231722e+01,  -1.04904928e+00,   1.05577964e+01, 
              2.59424773e+00,  -1.04911394e+00,   2.34085731e+00,   2.86388897e+01,  -1.04874583e+00, 
              2.33959379e+00,   1.82135026e+01,  -1.04886311e+00,   1.05609898e+01,   2.86396255e+01, 
             -7.36678331e+00,   2.34461499e+01,  -2.83608203e-04,  -3.15980560e+00,   2.41251046e+01, 
              3.12341640e+01,  -9.47768369e+00,   1.66186310e+00,   2.44537818e+01,  -7.19734037e+00, 
              2.01552034e+01,   2.55236805e+01,  -9.47754289e+00,   2.10034598e+01,   2.44537068e+01, 
             -1.17577643e+01,   2.01553257e+01,   2.23967849e+01,  -1.17577614e+01,   1.85197304e+01, 
              2.13268162e+01,  -9.47758785e+00,   1.76715482e+01,   2.23968714e+01,  -7.19736520e+00, 
              1.85195877e+01,   1.91098940e+01,  -9.47764805e+00,   1.59020882e+01,   2.77406675e+01, 
             -9.47757680e+00,   2.27728094e+01,   1.21211960e+01,  -9.47784230e+00,   1.58988789e+01, 
              9.90493524e+00,  -9.47790182e+00,   1.76691523e+01,   8.83546772e+00,  -7.19771665e+00, 
              1.85179959e+01,   6.77954717e+00,  -7.19774017e+00,   2.01548663e+01,   5.71011594e+00, 
             -9.47795590e+00,   2.10036288e+01,   6.77951629e+00,  -1.17581633e+01,   2.01547547e+01, 
              8.83542619e+00,  -1.17581301e+01,   1.85178685e+01,   3.49398504e+00,  -9.47794348e+00, 
              2.27740413e+01,   1.21243165e+01,  -3.15986912e+00,   9.88436908e+00,   9.90736924e+00, 
             -3.15993222e+00,   8.11500835e+00,   8.83740244e+00,  -8.79740995e-01,   7.26680368e+00, 
              6.78041339e+00,  -8.79746860e-01,   5.63130284e+00,   5.71034797e+00,  -3.15995551e+00, 
              4.78330144e+00,   6.78035337e+00,  -5.44017235e+00,   5.63141007e+00,   8.83733750e+00, 
             -5.44014769e+00,   7.26693443e+00,   3.49325442e+00,  -3.15993100e+00,   3.01410095e+00, 
              1.91124425e+01,  -3.15967350e+00,   9.88766813e+00,   2.13287314e+01,  -3.15961130e+00, 
              8.11747589e+00,   2.23981805e+01,  -5.43978236e+00,   7.26864117e+00,   2.44542061e+01, 
             -5.43977004e+00,   5.63187398e+00,   2.55237424e+01,  -3.15954991e+00,   4.78320501e+00, 
              2.44542423e+01,  -8.79350555e-01,   5.63200441e+00,   2.23982331e+01,  -8.79386955e-01, 
              7.26878482e+00,   2.77399719e+01,  -3.15956609e+00,   3.01291021e+00,   2.52479181e+01, 
             -7.21266119e+00,   4.99531092e+00,   2.16044054e+01,  -7.21270199e+00,   7.90505889e+00, 
              2.52479373e+01,  -5.42443238e+00,   2.07911835e+01,   2.16028264e+01,  -5.42447231e+00, 
              1.78834571e+01,   1.56172677e+01,  -9.47775117e+00,   9.51112856e+00,   1.56165572e+01, 
             -3.15977155e+00,   1.62757038e+01,  -1.36154766e-05,  -3.15986041e+00,   2.23984344e+01, 
              3.12338535e+01,  -9.47764131e+00,   3.38852783e+00,   9.63143201e+00,  -7.21304214e+00, 
              7.90301046e+00,   5.98614499e+00,  -7.21308723e+00,   4.99549929e+00,   5.98587606e+00, 
             -5.42485276e+00,   2.07914723e+01,   9.62921240e+00,  -5.42482427e+00,   1.78815198e+01, 
              5.98625135e+00,   8.93150160e-01,   4.99529868e+00,   9.63154884e+00,   8.93164464e-01, 
              7.90277683e+00,   9.62913150e+00,  -1.35310079e+01,   1.78812879e+01,   5.98580826e+00, 
             -1.35310698e+01,   2.07912774e+01,   2.16026953e+01,  -1.35306674e+01,   1.78837230e+01, 
              2.52478148e+01,  -1.35306501e+01,   2.07914163e+01,   2.16045028e+01,   8.93508182e-01, 
              7.90532019e+00,   2.52480039e+01,   8.93571736e-01,   4.99553495e+00,   1.56169571e+01, 
             -7.89041905e-04,   1.28933527e+01,   1.56169896e+01,   6.31718079e+00,   1.28933432e+01, 
             -4.33508837e-04,   6.31710978e+00,   6.35086675e-03,  -4.66091494e-04,  -8.09702280e-04, 
              6.35995445e-03,   1.82109768e+01,   1.04747196e+00,   1.52288108e+01,   1.56178676e+01, 
              3.15819432e+00,   1.12377738e+01,   1.56161268e+01,   9.47616496e+00,   1.45490180e+01, 
              2.86397357e+01,   1.04756604e+00,   2.34460925e+01,   1.30202963e+01,   1.04730502e+00, 
              1.52256595e+01,   2.59508106e+00,   1.04722801e+00,   2.34474064e+01,   1.30204693e+01, 
              5.26889868e+00,   1.52258414e+01,   1.30230702e+01,   7.36522934e+00,   1.05579773e+01, 
              2.59436386e+00,   7.36519808e+00,   2.34078832e+00,   1.82111561e+01,   5.26914075e+00, 
              1.52286018e+01,   1.82133983e+01,   7.36544963e+00,   1.05607794e+01,   2.86389849e+01, 
              7.36554083e+00,   2.33962836e+00,   2.59505386e+00,   5.26878435e+00,   2.34473472e+01, 
              1.30232445e+01,   1.15868897e+01,   1.05577838e+01,   2.59432004e+00,   1.15868251e+01, 
              2.34084465e+00,   2.86389620e+01,   1.15871932e+01,   2.33958114e+00,   1.82135749e+01, 
              1.15870759e+01,   1.05609771e+01,   2.86396978e+01,   5.26915570e+00,   2.34461372e+01, 
             -2.11301614e-04,   9.47613341e+00,   2.41250920e+01,   3.12342363e+01,   3.15825532e+00, 
              1.66185045e+00,   2.44538541e+01,   5.43859864e+00,   2.01551907e+01,   2.55237528e+01, 
              3.15839612e+00,   2.10034471e+01,   2.44537791e+01,   8.78174675e-01,   2.01553130e+01, 
              2.23968572e+01,   8.78177568e-01,   1.85197177e+01,   2.13268885e+01,   3.15835116e+00, 
              1.76715355e+01,   2.23969437e+01,   5.43857381e+00,   1.85195751e+01,   1.91099663e+01, 
              3.15829096e+00,   1.59020756e+01,   2.77407398e+01,   3.15836221e+00,   2.27727967e+01, 
              1.21212683e+01,   3.15809671e+00,   1.58988662e+01,   9.90500755e+00,   3.15803719e+00, 
              1.76691396e+01,   8.83554002e+00,   5.43822236e+00,   1.85179833e+01,   6.77961948e+00, 
              5.43819885e+00,   2.01548536e+01,   5.71018825e+00,   3.15798311e+00,   2.10036161e+01, 
              6.77958860e+00,   8.77775700e-01,   2.01547420e+01,   8.83549850e+00,   8.77808950e-01, 
              1.85178559e+01,   3.49405735e+00,   3.15799553e+00,   2.27740286e+01,   1.21243888e+01, 
              9.47606990e+00,   9.88435643e+00,   9.90744154e+00,   9.47600679e+00,   8.11499569e+00, 
              8.83747475e+00,   1.17561980e+01,   7.26679102e+00,   6.78048570e+00,   1.17561922e+01, 
              5.63129018e+00,   5.71042027e+00,   9.47598350e+00,   4.78328878e+00,   6.78042568e+00, 
              7.19576666e+00,   5.63139741e+00,   8.83740980e+00,   7.19579132e+00,   7.26692178e+00, 
              3.49332673e+00,   9.47600801e+00,   3.01408829e+00,   1.91125148e+01,   9.47626551e+00, 
              9.88765547e+00,   2.13288038e+01,   9.47632771e+00,   8.11746323e+00,   2.23982529e+01, 
              7.19615665e+00,   7.26862851e+00,   2.44542784e+01,   7.19616897e+00,   5.63186132e+00, 
              2.55238147e+01,   9.47638910e+00,   4.78319235e+00,   2.44543146e+01,   1.17565885e+01, 
              5.63199176e+00,   2.23983054e+01,   1.17565521e+01,   7.26877216e+00,   2.77400442e+01, 
              9.47637292e+00,   3.01289755e+00,   2.52479904e+01,   5.42327783e+00,   4.99529826e+00, 
              2.16044777e+01,   5.42323702e+00,   7.90504624e+00,   2.52480096e+01,   7.21150663e+00, 
              2.07911708e+01,   2.16028987e+01,   7.21146670e+00,   1.78834444e+01,   1.56173401e+01, 
              3.15818784e+00,   9.51111590e+00,   1.56166295e+01,   9.47616746e+00,   1.62756911e+01, 
              5.86911132e-05,   9.47607861e+00,   2.23984217e+01,   3.12339258e+01,   3.15829770e+00, 
              3.38851517e+00,   9.63150431e+00,   5.42289688e+00,   7.90299781e+00,   5.98621730e+00, 
              5.42285178e+00,   4.99548663e+00,   5.98594837e+00,   7.21108625e+00,   2.07914596e+01, 
              9.62928470e+00,   7.21111474e+00,   1.78815072e+01,   5.98632366e+00,   1.35290892e+01, 
              4.99528603e+00,   9.63162114e+00,   1.35291035e+01,   7.90276417e+00,   9.62920381e+00, 
             -8.95068937e-01,   1.78812753e+01,   5.98588056e+00,  -8.95130830e-01,   2.07912647e+01, 
              2.16027676e+01,  -8.94728420e-01,   1.78837104e+01,   2.52478871e+01,  -8.94711087e-01, 
              2.07914037e+01,   2.16045752e+01,   1.35294472e+01,   7.90530753e+00,   2.52480762e+01, 
              1.35295107e+01,   4.99552229e+00,   1.56168848e+01,  -1.26367281e+01,   1.28933654e+01, 
              1.56169173e+01,  -6.31875822e+00,   1.28933559e+01,  -5.05817316e-04,  -6.31882923e+00, 
              6.36352414e-03,  -5.38398084e-04,  -1.26367487e+01,   6.37261183e-03,   1.82109045e+01, 