6
# CELL(abcABC):  459.05226   459.05226   459.05226    90.00000    90.00000    90.00000  Step:           0  Bead:       0 x_centroid{angstrom}  cell{atomic_unit}
       C -3.39887e-01 -1.13437e-01  8.06659e-02
       O  8.43483e-01  2.62672e-01 -1.81512e-01
       H -7.35799e-02  8.16467e-01 -6.61432e-01
       H -4.30016e-01 -9.65701e-01  7.62278e-01
       L  6.13458e+01  0.00000e+00  0.00000e+00
       L  0.00000e+00  8.59064e+00  0.00000e+00
6
# CELL(abcABC):  459.05226   459.05226   459.05226    90.00000    90.00000    90.00000  Step:           1  Bead:       0 x_centroid{angstrom}  cell{atomic_unit}
       C -3.38606e-01 -1.13377e-01  8.00316e-02
       O  8.42718e-01  2.62579e-01 -1.81895e-01
       H -8.44177e-02  8.16287e-01 -6.58571e-01
       H -4.22193e-01 -9.64424e-01  7.73296e-01
       L  6.10290e+01 -4.65154e-01 -1.36235e-01
       L  1.19504e-01  8.43223e+00 -3.23060e-01
6
# CELL(abcABC):  459.05226   459.05226   459.05226    90.00000    90.00000    90.00000  Step:           2  Bead:       0 x_centroid{angstrom}  cell{atomic_unit}
       C -3.37347e-01 -1.13595e-01  7.91788e-02
       O  8.41785e-01  2.62609e-01 -1.82220e-01
       H -9.19270e-02  8.16539e-01 -6.54811e-01
       H -4.14761e-01 -9.62199e-01  7.85119e-01
       L  6.07467e+01 -9.20487e-01 -2.58068e-01
       L  1.90504e-01  8.20359e+00 -6.85380e-01
6
# CELL(abcABC):  459.05226   459.05226   459.05226    90.00000    90.00000    90.00000  Step:           3  Bead:       0 x_centroid{angstrom}  cell{atomic_unit}
       C -3.36066e-01 -1.13784e-01  7.82392e-02
       O  8.40531e-01  2.62528e-01 -1.82501e-01
       H -9.46932e-02  8.16646e-01 -6.51914e-01
       H -4.07249e-01 -9.58384e-01  7.98150e-01
       L  6.04862e+01 -1.34013e+00 -3.56529e-01
       L  2.66557e-01  7.95119e+00 -1.09046e+00
6
# CELL(abcABC):  459.05226   459.05226   459.05226    90.00000    90.00000    90.00000  Step:           4  Bead:       0 x_centroid{angstrom}  cell{atomic_unit}
       C -3.34428e-01 -1.14309e-01  7.74343e-02
       O  8.38827e-01  2.62609e-01 -1.82760e-01
       H -9.46260e-02  8.17654e-01 -6.48492e-01
       H -3.99628e-01 -9.54032e-01  8.08714e-01
       L  6.01930e+01 -1.80476e+00 -5.06822e-01
       L  2.52618e-01  7.67551e+00 -1.44184e+00
6
# CELL(abcABC):  459.05226   459.05226   459.05226    90.00000    90.00000    90.00000  Step:           5  Bead:       0 x_centroid{angstrom}  cell{atomic_unit}
       C -3.33210e-01 -1.14776e-01  7.70317e-02
       O  8.37400e-01  2.62684e-01 -1.83197e-01
       H -9.29911e-02  8.18105e-01 -6.45314e-01
       H -3.92950e-01 -9.49718e-01  8.17522e-01
       L  5.99432e+01 -2.26120e+00 -6.50816e-01
       L  2.04454e-01  7.44062e+00 -1.77472e+00
6
# CELL(abcABC):  459.05226   459.05226   459.05226    90.00000    90.00000    90.00000  Step:           6  Bead:       0 x_centroid{angstrom}  cell{atomic_unit}
       C -3.32531e-01 -1.15282e-01  7.69250e-02
       O  8.36521e-01  2.62913e-01 -1.83769e-01
       H -9.35323e-02  8.15937e-01 -6.42536e-01
       H -3.86345e-01 -9.44804e-01  8.25331e-01
       L  5.96307e+01 -2.69493e+00 -7.55605e-01
       L  1.52808e-01  7.21417e+00 -2.10788e+00
6
# CELL(abcABC):  459.05226   459.05226   459.05226    90.00000    90.00000    90.00000  Step:           7  Bead:       0 x_centroid{angstrom}  cell{atomic_unit}
       C -3.31930e-01 -1.15623e-01  7.71778e-02
       O  8.35879e-01  2.63058e-01 -1.84403e-01
       H -9.48437e-02  8.12106e-01 -6.40052e-01
       H -3.81808e-01 -9.38815e-01  8.30142e-01
       L  5.93287e+01 -3.10647e+00 -9.23186e-01
       L  7.72690e-02  6.89921e+00 -2.38631e+00
6
# CELL(abcABC):  459.05226   459.05226   459.05226    90.00000    90.00000    90.00000  Step:           8  Bead:       0 x_centroid{angstrom}  cell{atomic_unit}
       C -3.31786e-01 -1.16055e-01  7.77384e-02
       O  8.35722e-01  2.63294e-01 -1.85213e-01
       H -9.82581e-02  8.07068e-01 -6.37117e-01
       H -3.77416e-01 -9.31917e-01  8.33590e-01
       L  5.90770e+01 -3.55584e+00 -1.03986e+00
       L -3.58772e-02  6.52396e+00 -2.64368e+00
6
# CELL(abcABC):  459.05226   459.05226   459.05226    90.00000    90.00000    90.00000  Step:           9  Bead:       0 x_centroid{angstrom}  cell{atomic_unit}
       C -3.31846e-01 -1.16667e-01  7.83076e-02
       O  8.35741e-01  2.63652e-01 -1.85837e-01
       H -1.01382e-01  8.01209e-01 -6.34407e-01
       H -3.73656e-01 -9.24024e-01  8.34201e-01
       L  5.88049e+01 -3.98950e+00 -1.13919e+00
       L -1.80794e-01  6.14508e+00 -2.90672e+00
6
# CELL(abcABC):  459.05226   459.05226   459.05226    90.00000    90.00000    90.00000  Step:          10  Bead:       0 x_centroid{angstrom}  cell{atomic_unit}
       C -3.32313e-01 -1.17345e-01  7.87446e-02
       O  8.35851e-01  2.63993e-01 -1.86404e-01
       H -1.01942e-01  7.96202e-01 -6.31702e-01
       H -3.69117e-01 -9.15941e-01  8.35520e-01
       L  5.86281e+01 -4.36342e+00 -1.27984e+00
       L -3.11008e-01  5.78120e+00 -3.19476e+00
6
# CELL(abcABC):  459.05226   459.05226   459.05226    90.00000    90.00000    90.00000  Step:          11  Bead:       0 x_centroid{angstrom}  cell{atomic_unit}
       C -3.32607e-01 -1.18134e-01  7.94039e-02
       O  8.35665e-01  2.64366e-01 -1.87074e-01
       H -9.95988e-02  7.92604e-01 -6.30392e-01
       H -3.64874e-01 -9.08477e-01  8.37222e-01
       L  5.85306e+01 -4.71293e+00 -1.45367e+00
       L -4.39577e-01  5.43596e+00 -3.44821e+00
6
# CELL(abcABC):  459.05226   459.05226   459.05226    90.00000    90.00000    90.00000  Step:          12  Bead:       0 x_centroid{angstrom}  cell{atomic_unit}
       C -3.32773e-01 -1.18776e-01  8.02714e-02
       O  8.35296e-01  2.64495e-01 -1.87804e-01
       H -9.58464e-02  7.91935e-01 -6.30771e-01
       H -3.60702e-01 -9.01899e-01  8.39049e-01
       L  5.84884e+01 -5.00942e+00 -1.61687e+00
       L -5.60778e-01  5.15836e+00 -3.63719e+00
6
# CELL(abcABC):  459.05226   459.05226   459.05226    90.00000    90.00000    90.00000  Step:          13  Bead:       0 x_centroid{angstrom}  cell{atomic_unit}
       C -3.32978e-01 -1.19596e-01  8.14317e-02
       O  8.35014e-01  2.64666e-01 -1.88666e-01
       H -9.17963e-02  7.93204e-01 -6.32365e-01
       H -3.57739e-01 -8.95867e-01  8.40658e-01
       L  5.84822e+01 -5.22911e+00 -1.74380e+00
       L -7.30728e-01  4.92369e+00 -3.81360e+00
6
# CELL(abcABC):  459.05226   459.05226   459.05226    90.00000    90.00000    90.00000  Step:          14  Bead:       0 x_centroid{angstrom}  cell{atomic_unit}
       C -3.33238e-01 -1.20653e-01  8.28089e-02
       O  8.34831e-01  2.64905e-01 -1.89573e-01
       H -8.82170e-02  7.95407e-01 -6.35914e-01
       H -3.55188e-01 -8.89079e-01  8.42341e-01
       L  5.84389e+01 -5.38229e+00 -1.85581e+00
       L -9.21740e-01  4.72928e+00 -3.95285e+00
6
# CELL(abcABC):  459.05226   459.05226   459.05226    90.00000    90.00000    90.00000  Step:          15  Bead:       0 x_centroid{angstrom}  cell{atomic_unit}
       C -3.33798e-01 -1.21765e-01  8.38207e-02
       O  8.35133e-01  2.65083e-01 -1.90068e-01
       H -8.73857e-02  8.00065e-01 -6.42300e-01
       H -3.54014e-01 -8.83158e-01  8.44622e-01
       L  5.84166e+01 -5.51412e+00 -1.91749e+00
       L -1.12936e+00  4.57130e+00 -4.06813e+00
6
# CELL(abcABC):  459.05226   459.05226   459.05226    90.00000    90.00000    90.00000  Step:          16  Bead:       0 x_centroid{angstrom}  cell{atomic_unit}
       C -3.34529e-01 -1.22873e-01  8.47082e-02
       O  8.35739e-01  2.65160e-01 -1.90396e-01
       H -8.87466e-02  8.05963e-01 -6.49721e-01
       H -3.53439e-01 -8.76952e-01  8.46708e-01
       L  5.83751e+01 -5.56768e+00 -1.91680e+00
       L -1.31976e+00  4.41159e+00 -4.14489e+00
6
# CELL(abcABC):  459.05226   459.05226   459.05226    90.00000    90.00000    90.00000  Step:          17  Bead:       0 x_centroid{angstrom}  cell{atomic_unit}
       C -3.35296e-01 -1.24019e-01  8.56062e-02
       O  8.36574e-01  2.65409e-01 -1.90659e-01
       H -9.18972e-02  8.11478e-01 -6.55980e-01
       H -3.54292e-01 -8.72677e-01  8.46459e-01
       L  5.83323e+01 -5.53461e+00 -1.93427e+00
       L -1.47738e+00  4.21044e+00 -4.16165e+00
6
# CELL(abcABC):  459.05226   459.05226   459.05226    90.00000    90.00000    90.00000  Step:          18  Bead:       0 x_centroid{angstrom}  cell{atomic_unit}
       C -3.35833e-01 -1.24880e-01  8.65996e-02
       O  8.37433e-01  2.65691e-01 -1.91075e-01
       H -9.57246e-02  8.15228e-01 -6.62060e-01
       H -3.57577e-01 -8.70601e-01  8.47257e-01
       L  5.82522e+01 -5.37567e+00 -1.87064e+00
       L -1.61251e+00  3.99179e+00 -4.14168e+00
6
# CELL(abcABC):  459.05226   459.05226   459.05226    90.00000    90.00000    90.00000  Step:          19  Bead:       0 x_centroid{angstrom}  cell{atomic_unit}
       C -3.36510e-01 -1.25334e-01  8.75607e-02
       O  8.38242e-01  2.65919e-01 -1.91494e-01
       H -9.72918e-02  8.16994e-01 -6.67390e-01
       H -3.60731e-01 -8.70543e-01  8.47704e-01
       L  5.82388e+01 -5.17774e+00 -1.80593e+00
       L -1.70744e+00  3.71699e+00 -4.03936e+00
6
# CELL(abcABC):  459.05226   459.05226   459.05226    90.00000    90.00000    90.00000  Step:          20  Bead:       0 x_centroid{angstrom}  cell{atomic_unit}
       C -3.37107e-01 -1.25483e-01  8.86839e-02
       O  8.38727e-01  2.66315e-01 -1.92208e-01
       H -9.56629e-02  8.16287e-01 -6.73053e-01
       H -3.62916e-01 -8.74292e-01  8.51141e-01
       L  5.82494e+01 -4.95297e+00 -1.65210e+00
       L -1.78378e+00  3.39492e+00 -3.88153e+00
6
# CELL(abcABC):  459.05226   459.05226   459.05226    90.00000    90.00000    90.00000  Step:          21  Bead:       0 x_centroid{angstrom}  cell{atomic_unit}
       C -3.37412e-01 -1.25408e-01  8.96968e-02
       O  8.38807e-01  2.66847e-01 -1.92893e-01
       H -9.13463e-02  8.14086e-01 -6.78089e-01
       H -3.64868e-01 -8.81400e-01  8.54774e-01
       L  5.82680e+01 -4.66654e+00 -1.46524e+00
       L -1.79500e+00  3.03285e+00 -3.68573e+00
6
# CELL(abcABC):  459.05226   459.05226   459.05226    90.00000    90.00000    90.00000  Step:          22  Bead:       0 x_centroid{angstrom}  cell{atomic_unit}
       C -3.37767e-01 -1.25206e-01  9.03996e-02
       O  8.38804e-01  2.67508e-01 -1.93366e-01
       H -8.47043e-02  8.09943e-01 -6.83600e-01
       H -3.67246e-01 -8.90128e-01  8.59173e-01
       L  5.83105e+01 -4.31848e+00 -1.26353e+00
       L -1.80695e+00  2.64412e+00 -3.44539e+00
6
# CELL(abcABC):  459.05226   459.05226   459.05226    90.00000    90.00000    90.00000  Step:          23  Bead:       0 x_centroid{angstrom}  cell{atomic_unit}
       C -3.38187e-01 -1.25121e-01  9.14123e-02
       O  8.38992e-01  2.68368e-01 -1.94037e-01
       H -7.96540e-02  8.02869e-01 -6.88010e-01
       H -3.70314e-01 -8.97759e-01  8.61929e-01
       L  5.83430e+01 -3.89731e+00 -1.06841e+00
       L -1.76828e+00  2.28550e+00 -3.18291e+00
6
# CELL(abcABC):  459.05226   459.05226   459.05226    90.00000    90.00000    90.00000  Step:          24  Bead:       0 x_centroid{angstrom}  cell{atomic_unit}
       C -3.38819e-01 -1.24859e-01  9.23820e-02
       O  8.39502e-01  2.69221e-01 -1.94658e-01
       H -7.61044e-02  7.93659e-01 -6.92633e-01
       H -3.74470e-01 -9.05262e-01  8.64557e-01
       L  5.83586e+01 -3.43122e+00 -8.51380e-01
       L -1.71815e+00  1.93002e+00 -2.87246e+00
6
# CELL(abcABC):  459.05226   459.05226   459.05226    90.00000    90.00000    90.00000  Step:          25  Bead:       0 x_centroid{angstrom}  cell{atomic_unit}
       C -3.39770e-01 -1.24697e-01  9.30915e-02
       O  8.40479e-01  2.70099e-01 -1.95030e-01
       H -7.62395e-02  7.83943e-01 -6.97829e-01
       H -3.78483e-01 -9.11501e-01  8.66923e-01
       L  5.83582e+01 -2.93321e+00 -6.54007e-01
       L -1.74263e+00  1.59650e+00 -2.55990e+00
6
# CELL(abcABC):  459.05226   459.05226   459.05226    90.00000    90.00000    90.00000  Step:          26  Bead:       0 x_centroid{angstrom}  cell{atomic_unit}
       C -3.40385e-01 -1.24694e-01  9.34274e-02
       O  8.41445e-01  2.70940e-01 -1.95085e-01
       H -7.84990e-02  7.75361e-01 -7.03724e-01
       H -3.84234e-01 -9.16424e-01  8.69376e-01
       L  5.83232e+01 -2.37596e+00 -3.86203e-01
       L -1.70292e+00  1.26151e+00 -2.24762e+00
6
# CELL(abcABC):  459.05226   459.05226   459.05226    90.00000    90.00000    90.00000  Step:          27  Bead:       0 x_centroid{angstrom}  cell{atomic_unit}
       C -3.40972e-01 -1.24766e-01  9.36442e-02
       O  8.42138e-01  2.71631e-01 -1.95011e-01
       H -7.90277e-02  7.68901e-01 -7.11110e-01
       H -3.87757e-01 -9.20219e-01  8.72664e-01
       L  5.82864e+01 -1.80132e+00 -1.18242e-01
       L -1.57465e+00  9.62341e-01 -1.89395e+00
6
# CELL(abcABC):  459.05226   459.05226   459.05226    90.00000    90.00000    90.00000  Step:          28  Bead:       0 x_centroid{angstrom}  cell{atomic_unit}
       C -3.41092e-01 -1.25146e-01  9.40943e-02
       O  8.42313e-01  2.72346e-01 -1.95095e-01
       H -7.76613e-02  7.65760e-01 -7.18939e-01
       H -3.90536e-01 -9.24068e-01  8.76135e-01
       L  5.82283e+01 -1.30900e+00  1.62929e-01
       L -1.39541e+00  7.86532e-01 -1.56642e+00
6
# CELL(abcABC):  459.05226   459.05226   459.05226    90.00000    90.00000    90.00000  Step:          29  Bead:       0 x_centroid{angstrom}  cell{atomic_unit}
       C -3.41092e-01 -1.25619e-01  9.47469e-02
       O  8.42316e-01  2.72943e-01 -1.95302e-01
       H -7.35037e-02  7.64740e-01 -7.27104e-01
       H -3.94830e-01 -9.27134e-01  8.79468e-01
       L  5.81512e+01 -7.85202e-01  4.74005e-01
       L -1.16150e+00  6.87364e-01 -1.26188e+00
6
# CELL(abcABC):  459.05226   459.05226   459.05226    90.00000    90.00000    90.00000  Step:          30  Bead:       0 x_centroid{angstrom}  cell{atomic_unit}
       C -3.41063e-01 -1.26172e-01  9.53192e-02
       O  8.42199e-01  2.73540e-01 -1.95549e-01
       H -6.82330e-02  7.64655e-01 -7.36092e-01
       H -3.98672e-01 -9.30205e-01  8.85200e-01
       L  5.80401e+01 -2.28953e-01  7.71172e-01
       L -9.06614e-01  6.31858e-01 -8.97180e-01
6
# CELL(abcABC):  459.05226   459.05226   459.05226    90.00000    90.00000    90.00000  Step:          31  Bead:       0 x_centroid{angstrom}  cell{atomic_unit}
       C -3.41134e-01 -1.26937e-01  9.56947e-02
       O  8.42249e-01  2.74200e-01 -1.95573e-01
       H -6.43124e-02  7.64427e-01 -7.45200e-01
       H -4.02588e-01 -9.31622e-01  8.89834e-01
       L  5.78595e+01  3.26584e-01  1.05234e+00
       L -6.33915e-01  5.91610e-01 -4.80040e-01
6
# CELL(abcABC):  459.05226   459.05226   459.05226    90.00000    90.00000    90.00000  Step:          32  Bead:       0 x_centroid{angstrom}  cell{atomic_unit}
       C -3.41306e-01 -1.27801e-01  9.60772e-02
       O  8.42494e-01  2.74825e-01 -1.95620e-01
       H -6.33417e-02  7.65123e-01 -7.53276e-01
       H -4.05459e-01 -9.32216e-01  8.93703e-01
       L  5.76903e+01  8.33471e-01  1.32073e+00
       L -3.64769e-01  5.85393e-01 -2.49455e-02
6
# CELL(abcABC):  459.05226   459.05226   459.05226    90.00000    90.00000    90.00000  Step:          33  Bead:       0 x_centroid{angstrom}  cell{atomic_unit}
       C -3.41497e-01 -1.28851e-01  9.68179e-02
       O  8.42844e-01  2.75493e-01 -1.95772e-01
       H -6.31623e-02  7.65809e-01 -7.61778e-01
       H -4.08936e-01 -9.31211e-01  8.95378e-01
       L  5.74764e+01  1.26957e+00  1.60578e+00
       L -1.12621e-01  5.75090e-01  4.66111e-01
6
# CELL(abcABC):  459.05226   459.05226   459.05226    90.00000    90.00000    90.00000  Step:          34  Bead:       0 x_centroid{angstrom}  cell{atomic_unit}
       C -3.42208e-01 -1.29829e-01  9.74956e-02
       O  8.43550e-01  2.76003e-01 -1.95793e-01
       H -6.34582e-02  7.66525e-01 -7.69481e-01
       H -4.11402e-01 -9.28605e-01  8.94906e-01
       L  5.72648e+01  1.66771e+00  1.87758e+00
       L  1.43719e-01  5.97274e-01  9.70621e-01
6
# CELL(abcABC):  459.05226   459.05226   459.05226    90.00000    90.00000    90.00000  Step:          35  Bead:       0 x_centroid{angstrom}  cell{atomic_unit}
       C -3.43006e-01 -1.30729e-01  9.81915e-02
       O  8.44293e-01  2.76335e-01 -1.95891e-01
       H -6.40390e-02  7.66544e-01 -7.74115e-01
       H -4.13133e-01 -9.23411e-01  8.92437e-01
       L  5.70242e+01  2.05704e+00  2.08867e+00
       L  4.31087e-01  6.38974e-01  1.45230e+00
6
# CELL(abcABC):  459.05226   459.05226   459.05226    90.00000    90.00000    90.00000  Step:          36  Bead:       0 x_centroid{angstrom}  cell{atomic_unit}
       C -3.44041e-01 -1.31985e-01  9.87636e-02
       O  8.45095e-01  2.76814e-01 -1.95987e-01
       H -6.26448e-02  7.66477e-01 -7.76204e-01
       H -4.14931e-01 -9.16186e-01  8.88869e-01
       L  5.67755e+01  2.42790e+00  2.30251e+00
       L  7.03118e-01  6.64574e-01  1.89823e+00
6
# CELL(abcABC):  459.05226   459.05226   459.05226    90.00000    90.00000    90.00000  Step:          37  Bead:       0 x_centroid{angstrom}  cell{atomic_unit}
       C -3.44930e-01 -1.33312e-01  9.92519e-02
       O  8.45639e-01  2.77244e-01 -1.96103e-01
       H -5.81801e-02  7.66392e-01 -7.75940e-01
       H -4.17442e-01 -9.07347e-01  8.84313e-01
       L  5.64399e+01  2.81199e+00  2.47340e+00
       L  1.03597e+00  7.07488e-01  2.29320e+00
6
# CELL(abcABC):  459.05226   459.05226   459.05226    90.00000    90.00000    90.00000  Step:          38  Bead:       0 x_centroid{angstrom}  cell{atomic_unit}
       C -3.45591e-01 -1.34923e-01  9.96620e-02
       O  8.45753e-01  2.77723e-01 -1.96288e-01
       H -5.03861e-02  7.66885e-01 -7.73005e-01
       H -4.19187e-01 -8.96489e-01  8.79140e-01
       L  5.61284e+01  3.17115e+00  2.58623e+00
       L  1.38351e+00  7.80251e-01  2.72668e+00
6
# CELL(abcABC):  459.05226   459.05226   459.05226    90.00000    90.00000    90.00000  Step:          39  Bead:       0 x_centroid{angstrom}  cell{atomic_unit}
       C -3.46208e-01 -1.36881e-01  9.96407e-02
       O  8.45667e-01  2.78357e-01 -1.96269e-01
       H -4.17960e-02  7.68419e-01 -7.68248e-01
       H -4.19029e-01 -8.84937e-01  8.74083e-01
       L  5.57522e+01  3.45113e+00  2.65068e+00
       L  1.71625e+00  8.47310e-01  3.11111e+00
6
# CELL(abcABC):  459.05226   459.05226   459.05226    90.00000    90.00000    90.00000  Step:          40  Bead:       0 x_centroid{angstrom}  cell{atomic_unit}
       C -3.46835e-01 -1.38814e-01  9.96358e-02
       O  8.45367e-01  2.78920e-01 -1.96430e-01
       H -3.15340e-02  7.71222e-01 -7.62511e-01
       H -4.17048e-01 -8.73839e-01  8.70736e-01
       L  5.54012e+01  3.73616e+00  2.70934e+00
       L  2.03524e+00  9.20145e-01  3.49023e+00
6
# CELL(abcABC):  459.05226   459.05226   459.05226    90.00000    90.00000    90.00000  Step:          41  Bead:       0 x_centroid{angstrom}  cell{atomic_unit}
       C -3.47561e-01 -1.40413e-01  9.95661e-02
       O  8.45364e-01  2.79377e-01 -1.96802e-01
       H -2.32209e-02  7.73996e-01 -7.55459e-01
       H -4.16595e-01 -8.65021e-01  8.70222e-01
       L  5.50023e+01  3.98429e+00  2.73586e+00
       L  2.32226e+00  1.04762e+00  3.82291e+00
6
# CELL(abcABC):  459.05226   459.05226   459.05226    90.00000    90.00000    90.00000  Step:          42  Bead:       0 x_centroid{angstrom}  cell{atomic_unit}
       C -3.48537e-01 -1.42150e-01  9.93700e-02
       O  8.45793e-01  2.80117e-01 -1.97252e-01
       H -1.78976e-02  7.76180e-01 -7.48122e-01
       H -4.16994e-01 -8.58437e-01  8.72203e-01
       L  5.45178e+01  4.19363e+00  2.72294e+00
       L  2.61562e+00  1.16258e+00  4.13609e+00
6
# CELL(abcABC):  459.05226   459.05226   459.05226    90.00000    90.00000    90.00000  Step:          43  Bead:       0 x_centroid{angstrom}  cell{atomic_unit}
       C -3.49946e-01 -1.43925e-01  9.88537e-02
       O  8.46926e-01  2.80970e-01 -1.97633e-01
       H -1.77020e-02  7.78922e-01 -7.40562e-01
       H -4.18227e-01 -8.53699e-01  8.76704e-01
       L  5.39499e+01  4.33286e+00  2.65939e+00
       L  2.90959e+00  1.26742e+00  4.43127e+00
6
# CELL(abcABC):  459.05226   459.05226   459.05226    90.00000    90.00000    90.00000  Step:          44  Bead:       0 x_centroid{angstrom}  cell{atomic_unit}
       C -3.51966e-01 -1.45660e-01  9.80503e-02
       O  8.48698e-01  2.82006e-01 -1.97875e-01
       H -2.12459e-02  7.80846e-01 -7.33167e-01
       H -4.18544e-01 -8.51510e-01  8.82649e-01
       L  5.33239e+01  4.45926e+00  2.59567e+00
       L  3.15500e+00  1.36781e+00  4.65464e+00
6
# CELL(abcABC):  459.05226   459.05226   459.05226    90.00000    90.00000    90.00000  Step:          45  Bead:       0 x_centroid{angstrom}  cell{atomic_unit}
       C -3.54190e-01 -1.47348e-01  9.71100e-02
       O  8.50482e-01  2.83128e-01 -1.98158e-01
       H -2.36558e-02  7.82191e-01 -7.24729e-01
       H -4.17731e-01 -8.50630e-01  8.89794e-01
       L  5.26582e+01  4.55741e+00  2.54244e+00
       L  3.43734e+00  1.41913e+00  4.89809e+00
6
# CELL(abcABC):  459.05226   459.05226   459.05226    90.00000    90.00000    90.00000  Step:          46  Bead:       0 x_centroid{angstrom}  cell{atomic_unit}
       C -3.56102e-01 -1.48641e-01  9.58033e-02
       O  8.51876e-01  2.84121e-01 -1.98266e-01
       H -2.45131e-02  7.83474e-01 -7.16630e-01
       H -4.16023e-01 -8.52344e-01  8.98964e-01
       L  5.19927e+01  4.61603e+00  2.41479e+00
       L  3.70673e+00  1.49316e+00  5.05397e+00
6
# CELL(abcABC):  459.05226   459.05226   459.05226    90.00000    90.00000    90.00000  Step:          47  Bead:       0 x_centroid{angstrom}  cell{atomic_unit}
       C -3.57700e-01 -1.50017e-01  9.43804e-02
       O  8.52604e-01  2.85299e-01 -1.98369e-01
       H -2.03846e-02  7.84498e-01 -7.09836e-01
       H -4.12416e-01 -8.55734e-01  9.10803e-01
       L  5.13326e+01  4.65047e+00  2.22587e+00
       L  3.92606e+00  1.58439e+00  5.16562e+00
6
# CELL(abcABC):  459.05226   459.05226   459.05226    90.00000    90.00000    90.00000  Step:          48  Bead:       0 x_centroid{angstrom}  cell{atomic_unit}
       C -3.59423e-01 -1.51281e-01  9.30358e-02
       O  8.53153e-01  2.86553e-01 -1.98523e-01
       H -1.25097e-02  7.83964e-01 -7.03049e-01
       H -4.08206e-01 -8.60077e-01  9.22547e-01
       L  5.06823e+01  4.63318e+00  2.00547e+00
       L  4.08729e+00  1.64322e+00  5.27378e+00
6
# CELL(abcABC):  459.05226   459.05226   459.05226    90.00000    90.00000    90.00000  Step:          49  Bead:       0 x_centroid{angstrom}  cell{atomic_unit}
       C -3.61224e-01 -1.52478e-01  9.18530e-02
       O  8.53643e-01  2.87791e-01 -1.98690e-01
       H -2.27007e-03  7.82545e-01 -6.97193e-01
       H -4.04461e-01 -8.63997e-01  9.33508e-01
       L  5.00007e+01  4.50410e+00  1.81620e+00
       L  4.22916e+00  1.69093e+00  5.32440e+00
6
# CELL(abcABC):  459.05226   459.05226   459.05226    90.00000    90.00000    90.00000  Step:          50  Bead:       0 x_centroid{angstrom}  cell{atomic_unit}
       C -3.63155e-01 -1.53351e-01  9.08729e-02
       O  8.54185e-01  2.88895e-01 -1.98854e-01
       H  8.69509e-03  7.79579e-01 -6.91428e-01
       H -4.00640e-01 -8.68060e-01  9.42125e-01
       L  4.92151e+01  4.34345e+00  1.66583e+00
       L  4.29594e+00  1.69044e+00  5.30498e+00
6
# CELL(abcABC):  459.05226   459.05226   459.05226    90.00000    90.00000    90.00000  Step:          51  Bead:       0 x_centroid{angstrom}  cell{atomic_unit}
       C -3.65400e-01 -1.54382e-01  9.01764e-02
       O  8.55075e-01  2.90118e-01 -1.98985e-01
       H  1.92410e-02  7.75946e-01 -6.86640e-01
       H -3.98144e-01 -8.71426e-01  9.47853e-01
       L  4.83904e+01  4.16104e+00  1.51781e+00
       L  4.34670e+00  1.64485e+00  5.19893e+00
6
# CELL(abcABC):  459.05226   459.05226   459.05226    90.00000    90.00000    90.00000  Step:          52  Bead:       0 x_centroid{angstrom}  cell{atomic_unit}
       C -3.67996e-01 -1.55680e-01  9.00645e-02
       O  8.56321e-01  2.91437e-01 -1.99159e-01
       H  2.97728e-02  7.72062e-01 -6.82959e-01
       H -3.97044e-01 -8.72876e-01  9.48391e-01
       L  4.75329e+01  3.94893e+00  1.39001e+00
       L  4.36215e+00  1.59618e+00  5.08792e+00
6
# CELL(abcABC):  459.05226   459.05226   459.05226    90.00000    90.00000    90.00000  Step:          53  Bead:       0 x_centroid{angstrom}  cell{atomic_unit}
       C -3.71267e-01 -1.57392e-01  9.03055e-02
       O  8.58173e-01  2.92960e-01 -1.99248e-01
       H  3.96683e-02  7.68856e-01 -6.82033e-01
       H -3.96827e-01 -8.73269e-01  9.46194e-01
       L  4.65976e+01  3.68568e+00  1.23444e+00
       L  4.28959e+00  1.52837e+00  4.91472e+00
6
# CELL(abcABC):  459.05226   459.05226   459.05226    90.00000    90.00000    90.00000  Step:          54  Bead:       0 x_centroid{angstrom}  cell{atomic_unit}
       C -3.75149e-01 -1.59324e-01  9.14019e-02
       O  8.60406e-01  2.94503e-01 -1.99654e-01
       H  5.00410e-02  7.67501e-01 -6.84681e-01
       H -3.95772e-01 -8.73168e-01  9.42410e-01
       L  4.56118e+01  3.38194e+00  1.11071e+00
       L  4.17186e+00  1.42801e+00  4.67618e+00
6
# CELL(abcABC):  459.05226   459.05226   459.05226    90.00000    90.00000    90.00000  Step:          55  Bead:       0 x_centroid{angstrom}  cell{atomic_unit}
       C -3.79417e-01 -1.61823e-01  9.27426e-02
       O  8.62810e-01  2.96112e-01 -1.99874e-01
       H  6.23244e-02  7.70739e-01 -6.91660e-01
       H -3.94723e-01 -8.71921e-01  9.37129e-01
       L  4.45836e+01  3.05257e+00  9.74813e-01
       L  4.01979e+00  1.32800e+00  4.40965e+00
6
# CELL(abcABC):  459.05226   459.05226   459.05226    90.00000    90.00000    90.00000  Step:          56  Bead:       0 x_centroid{angstrom}  cell{atomic_unit}
       C -3.84228e-01 -1.64517e-01  9.41749e-02
       O  8.65396e-01  2.97551e-01 -1.99917e-01
       H  7.67798e-02  7.76961e-01 -7.00977e-01
       H -3.92186e-01 -8.68628e-01  9.30290e-01
       L  4.34886e+01  2.71064e+00  8.21554e-01
       L  3.82439e+00  1.20891e+00  4.15600e+00
6
# CELL(abcABC):  459.05226   459.05226   459.05226    90.00000    90.00000    90.00000  Step:          57  Bead:       0 x_centroid{angstrom}  cell{atomic_unit}
       C -3.89042e-01 -1.67327e-01  9.61288e-02
       O  8.67598e-01  2.98911e-01 -2.00195e-01
       H  9.63529e-02  7.86362e-01 -7.11751e-01
       H -3.88617e-01 -8.65876e-01  9.22429e-01
       L  4.23364e+01  2.33866e+00  6.83639e-01
       L  3.62502e+00  1.11331e+00  3.84028e+00
6
# CELL(abcABC):  459.05226   459.05226   459.05226    90.00000    90.00000    90.00000  Step:          58  Bead:       0 x_centroid{angstrom}  cell{atomic_unit}
       C -3.93967e-01 -1.70198e-01  9.81432e-02
       O  8.69591e-01  3.00289e-01 -2.00415e-01
       H  1.21022e-01  7.96975e-01 -7.24227e-01
       H -3.85486e-01 -8.63905e-01  9.14651e-01
       L  4.11713e+01  1.95976e+00  5.62344e-01
       L  3.41295e+00  1.02557e+00  3.49199e+00
6
# CELL(abcABC):  459.05226   459.05226   459.05226    90.00000    90.00000    90.00000  Step:          59  Bead:       0 x_centroid{angstrom}  cell{atomic_unit}
       C -3.99015e-01 -1.73369e-01  9.99893e-02
       O  8.71459e-01  3.01805e-01 -2.00681e-01
       H  1.49104e-01  8.09646e-01 -7.36929e-01
       H -3.82329e-01 -8.62598e-01  9.09844e-01
       L  3.99779e+01  1.54151e+00  4.61582e-01
       L  3.23696e+00  9.84973e-01  3.09675e+00
6
# CELL(abcABC):  459.05226   459.05226   459.05226    90.00000    90.00000    90.00000  Step:          60  Bead:       0 x_centroid{angstrom}  cell{atomic_unit}
       C -4.04207e-01 -1.76976e-01  1.02093e-01
       O  8.73099e-01  3.03730e-01 -2.01220e-01
       H  1.81957e-01  8.23361e-01 -7.50792e-01
       H -3.78541e-01 -8.63676e-01  9.07518e-01
       L  3.86620e+01  1.16761e+00  2.92034e-01
       L  3.07662e+00  9.40360e-01  2.68275e+00
6
# CELL(abcABC):  459.05226   459.05226   459.05226    90.00000    90.00000    90.00000  Step:          61  Bead:       0 x_centroid{angstrom}  cell{atomic_unit}
       C -4.10014e-01 -1.80667e-01  1.04147e-01
       O  8.75067e-01  3.05886e-01 -2.01884e-01
       H  2.17236e-01  8.37254e-01 -7.65116e-01
       H -3.74952e-01 -8.67607e-01  9.08238e-01
       L  3.72291e+01  8.08237e-01  1.38385e-01
       L  2.85043e+00  9.38342e-01  2.21654e+00
6
# CELL(abcABC):  459.05226   459.05226   459.05226    90.00000    90.00000    90.00000  Step:          62  Bead:       0 x_centroid{angstrom}  cell{atomic_unit}
       C -4.16272e-01 -1.84460e-01  1.06386e-01
       O  8.77250e-01  3.08205e-01 -2.02791e-01
       H  2.54614e-01  8.51465e-01 -7.78454e-01
       H -3.71443e-01 -8.73280e-01  9.09635e-01
       L  3.56854e+01  5.25479e-01 -1.23703e-03
       L  2.61257e+00  9.50286e-01  1.73639e+00
6
# CELL(abcABC):  459.05226   459.05226   459.05226    90.00000    90.00000    90.00000  Step:          63  Bead:       0 x_centroid{angstrom}  cell{atomic_unit}
       C -4.23113e-01 -1.88395e-01  1.08955e-01
       O  8.79746e-01  3.10901e-01 -2.04105e-01
       H  2.94857e-01  8.64737e-01 -7.91762e-01
       H -3.68785e-01 -8.82248e-01  9.13527e-01
       L  3.40490e+01  1.95526e-01 -1.26093e-01
       L  2.38902e+00  9.03999e-01  1.23921e+00
6
# CELL(abcABC):  459.05226   459.05226   459.05226    90.00000    90.00000    90.00000  Step:          64  Bead:       0 x_centroid{angstrom}  cell{atomic_unit}
       C -4.30594e-01 -1.92104e-01  1.11576e-01
       O  8.82489e-01  3.13619e-01 -2.05620e-01
       H  3.38076e-01  8.77092e-01 -8.03889e-01
       H -3.65389e-01 -8.93353e-01  9.18803e-01
       L  3.23708e+01 -1.32718e-01 -2.24798e-01
       L  2.20660e+00  8.59546e-01  7.29448e-01
6
# CELL(abcABC):  459.05226   459.05226   459.05226    90.00000    90.00000    90.00000  Step:          65  Bead:       0 x_centroid{angstrom}  cell{atomic_unit}
       C -4.38286e-01 -1.95915e-01  1.14193e-01
       O  8.85137e-01  3.16627e-01 -2.07171e-01
       H  3.84653e-01  8.87381e-01 -8.15458e-01
       H -3.61272e-01 -9.05734e-01  9.24162e-01
       L  3.06409e+01 -4.56443e-01 -3.92072e-01
       L  1.99183e+00  7.48315e-01  2.33445e-01
6
# CELL(abcABC):  459.05226   459.05226   459.05226    90.00000    90.00000    90.00000  Step:          66  Bead:       0 x_centroid{angstrom}  cell{atomic_unit}
       C -4.46323e-01 -1.99927e-01  1.16688e-01