6
# CELL(abcABC):  459.05226   459.05226   459.05226    90.00000    90.00000    90.00000  Step:           0  Bead:       0 x_centroid{angstrom}  cell{atomic_unit}
       C -3.39887e-01 -1.13437e-01  8.06659e-02
       O  8.43483e-01  2.62672e-01 -1.81512e-01
       H -7.35799e-02  8.16467e-01 -6.61432e-01
       H -4.30016e-01 -9.65701e-01  7.62278e-01
       L  6.13458e+01  0.00000e+00  0.00000e+00
       L  0.00000e+00  8.59064e+00  0.00000e+00
6
# CELL(abcABC):  459.05226   459.05226   459.05226    90.00000    90.00000    90.00000  Step:           1  Bead:       0 x_centroid{angstrom}  cell{atomic_unit}
       C -3.38088e-01 -1.14278e-01  7.97573e-02
       O  8.41741e-01  2.63300e-01 -1.80911e-01
       H -6.92065e-02  8.25382e-01 -6.59252e-01
       H -4.27989e-01 -9.74609e-01  7.61552e-01
       L  6.09498e+01 -2.14976e-02  6.83384e-02
       L  6.87392e-02  8.67073e+00 -3.89649e-01
6
# CELL(abcABC):  459.05226   459.05226   459.05226    90.00000    90.00000    90.00000  Step:           2  Bead:       0 x_centroid{angstrom}  cell{atomic_unit}
       C -3.36291e-01 -1.14969e-01  7.89159e-02
       O  8.40199e-01  2.63934e-01 -1.80287e-01
       H -6.79594e-02  8.31823e-01 -6.56754e-01
       H -4.25998e-01 -9.82903e-01  7.59342e-01
       L  6.05390e+01 -8.36534e-02  1.84936e-01
       L  1.42611e-01  8.78037e+00 -8.05224e-01
6
# CELL(abcABC):  459.05226   459.05226   459.05226    90.00000    90.00000    90.00000  Step:           3  Bead:       0 x_centroid{angstrom}  cell{atomic_unit}
       C -3.34779e-01 -1.15586e-01  7.84752e-02
       O  8.39284e-01  2.64718e-01 -1.79860e-01
       H -7.16121e-02  8.34010e-01 -6.53177e-01
       H -4.25660e-01 -9.90171e-01  7.54397e-01
       L  6.00884e+01 -1.24457e-01  2.56162e-01
       L  2.73686e-01  8.82112e+00 -1.17240e+00
6
# CELL(abcABC):  459.05226   459.05226   459.05226    90.00000    90.00000    90.00000  Step:           4  Bead:       0 x_centroid{angstrom}  cell{atomic_unit}
       C -3.33737e-01 -1.16487e-01  7.83055e-02
       O  8.39062e-01  2.65783e-01 -1.79589e-01
       H -8.01178e-02  8.33661e-01 -6.47730e-01
       H -4.25850e-01 -9.95933e-01  7.46835e-01
       L  5.96534e+01 -2.07607e-01  3.31973e-01
       L  3.51976e-01  8.77031e+00 -1.54705e+00
6
# CELL(abcABC):  459.05226   459.05226   459.05226    90.00000    90.00000    90.00000  Step:           5  Bead:       0 x_centroid{angstrom}  cell{atomic_unit}
       C -3.32843e-01 -1.17612e-01  7.83629e-02
       O  8.39047e-01  2.67055e-01 -1.79453e-01
       H -8.97336e-02  8.30890e-01 -6.40591e-01
       H -4.26455e-01 -9.99874e-01  7.37007e-01
       L  5.92026e+01 -3.06861e-01  4.15832e-01
       L  4.24100e-01  8.72934e+00 -1.91542e+00
6
# CELL(abcABC):  459.05226   459.05226   459.05226    90.00000    90.00000    90.00000  Step:           6  Bead:       0 x_centroid{angstrom}  cell{atomic_unit}
       C -3.31817e-01 -1.18947e-01  7.81070e-02
       O  8.38587e-01  2.68463e-01 -1.78960e-01
       H -9.52701e-02  8.28147e-01 -6.33339e-01
       H -4.25684e-01 -1.00349e+00  7.25125e-01
       L  5.88281e+01 -4.47042e-01  5.10098e-01
       L  5.13394e-01  8.73419e+00 -2.26638e+00
6
# CELL(abcABC):  459.05226   459.05226   459.05226    90.00000    90.00000    90.00000  Step:           7  Bead:       0 x_centroid{angstrom}  cell{atomic_unit}
       C -3.30750e-01 -1.20363e-01  7.80122e-02
       O  8.37493e-01  2.70018e-01 -1.78659e-01
       H -9.44694e-02  8.25348e-01 -6.26002e-01
       H -4.21704e-01 -1.00842e+00  7.14263e-01
       L  5.85030e+01 -6.03642e-01  5.88062e-01
       L  6.26236e-01  8.76081e+00 -2.57314e+00
6
# CELL(abcABC):  459.05226   459.05226   459.05226    90.00000    90.00000    90.00000  Step:           8  Bead:       0 x_centroid{angstrom}  cell{atomic_unit}
       C -3.29527e-01 -1.21711e-01  7.82722e-02
       O  8.35864e-01  2.71495e-01 -1.78567e-01
       H -8.82252e-02  8.25184e-01 -6.20247e-01
       H -4.16569e-01 -1.01561e+00  7.04080e-01
       L  5.82176e+01 -7.65804e-01  6.16023e-01
       L  7.44091e-01  8.85428e+00 -2.85968e+00
6
# CELL(abcABC):  459.05226   459.05226   459.05226    90.00000    90.00000    90.00000  Step:           9  Bead:       0 x_centroid{angstrom}  cell{atomic_unit}
       C -3.28296e-01 -1.23270e-01  7.84058e-02
       O  8.34079e-01  2.73061e-01 -1.78421e-01
       H -8.08080e-02  8.28029e-01 -6.14939e-01
       H -4.10277e-01 -1.02472e+00  6.94960e-01
       L  5.79770e+01 -9.28354e-01  6.63207e-01
       L  8.82126e-01  8.99801e+00 -3.08277e+00
6
# CELL(abcABC):  459.05226   459.05226   459.05226    90.00000    90.00000    90.00000  Step:          10  Bead:       0 x_centroid{angstrom}  cell{atomic_unit}
       C -3.27415e-01 -1.24807e-01  7.85978e-02
       O  8.32561e-01  2.74505e-01 -1.78322e-01
       H -7.46446e-02  8.32594e-01 -6.10438e-01
       H -4.02751e-01 -1.03390e+00  6.86721e-01
       L  5.76765e+01 -1.03987e+00  6.46552e-01
       L  1.00882e+00  9.12249e+00 -3.27540e+00
6
# CELL(abcABC):  459.05226   459.05226   459.05226    90.00000    90.00000    90.00000  Step:          11  Bead:       0 x_centroid{angstrom}  cell{atomic_unit}
       C -3.26906e-01 -1.26203e-01  7.88674e-02
       O  8.31771e-01  2.75813e-01 -1.78311e-01
       H -7.51667e-02  8.37603e-01 -6.05531e-01
       H -3.95596e-01 -1.04306e+00  6.78543e-01
       L  5.73615e+01 -1.10479e+00  5.94836e-01
       L  1.02207e+00  9.23035e+00 -3.44732e+00
6
# CELL(abcABC):  459.05226   459.05226   459.05226    90.00000    90.00000    90.00000  Step:          12  Bead:       0 x_centroid{angstrom}  cell{atomic_unit}
       C -3.26867e-01 -1.27712e-01  7.91039e-02
       O  8.31784e-01  2.77149e-01 -1.78208e-01
       H -8.32506e-02  8.42792e-01 -6.00635e-01
       H -3.88001e-01 -1.05152e+00  6.69328e-01
       L  5.70407e+01 -1.13910e+00  5.09758e-01
       L  1.01736e+00  9.34804e+00 -3.62312e+00
6
# CELL(abcABC):  459.05226   459.05226   459.05226    90.00000    90.00000    90.00000  Step:          13  Bead:       0 x_centroid{angstrom}  cell{atomic_unit}
       C -3.27351e-01 -1.29138e-01  7.93727e-02
       O  8.32333e-01  2.78302e-01 -1.78068e-01
       H -9.37288e-02  8.49014e-01 -5.96380e-01
       H -3.80256e-01 -1.05906e+00  6.59802e-01
       L  5.66525e+01 -1.24328e+00  3.57952e-01
       L  1.01992e+00  9.46385e+00 -3.73728e+00
6
# CELL(abcABC):  459.05226   459.05226   459.05226    90.00000    90.00000    90.00000  Step:          14  Bead:       0 x_centroid{angstrom}  cell{atomic_unit}
       C -3.27740e-01 -1.30477e-01  7.97819e-02
       O  8.32901e-01  2.79388e-01 -1.78098e-01
       H -1.04144e-01  8.55647e-01 -5.93091e-01
       H -3.74046e-01 -1.06699e+00  6.52267e-01
       L  5.62586e+01 -1.36761e+00  1.83846e-01
       L  1.09640e+00  9.59601e+00 -3.84091e+00
6
# CELL(abcABC):  459.05226   459.05226   459.05226    90.00000    90.00000    90.00000  Step:          15  Bead:       0 x_centroid{angstrom}  cell{atomic_unit}
       C -3.28220e-01 -1.31819e-01  8.05199e-02
       O  8.33236e-01  2.80537e-01 -1.78484e-01
       H -1.10452e-01  8.62266e-01 -5.89205e-01
       H -3.67186e-01 -1.07586e+00  6.45853e-01
       L  5.59207e+01 -1.47821e+00 -2.01655e-02
       L  1.14283e+00  9.72349e+00 -3.90062e+00
6
# CELL(abcABC):  459.05226   459.05226   459.05226    90.00000    90.00000    90.00000  Step:          16  Bead:       0 x_centroid{angstrom}  cell{atomic_unit}
       C -3.28267e-01 -1.33563e-01  8.12818e-02
       O  8.32805e-01  2.81976e-01 -1.78937e-01
       H -1.11671e-01  8.68982e-01 -5.85368e-01
       H -3.58473e-01 -1.08462e+00  6.40230e-01
       L  5.56689e+01 -1.55478e+00 -1.93242e-01
       L  1.23654e+00  9.78840e+00 -3.91611e+00
6
# CELL(abcABC):  459.05226   459.05226   459.05226    90.00000    90.00000    90.00000  Step:          17  Bead:       0 x_centroid{angstrom}  cell{atomic_unit}
       C -3.28451e-01 -1.35393e-01  8.22327e-02
       O  8.32127e-01  2.83609e-01 -1.79548e-01
       H -1.07955e-01  8.73873e-01 -5.81681e-01
       H -3.49173e-01 -1.09364e+00  6.35014e-01
       L  5.54503e+01 -1.58242e+00 -3.83994e-01
       L  1.33830e+00  9.83976e+00 -3.92237e+00
6
# CELL(abcABC):  459.05226   459.05226   459.05226    90.00000    90.00000    90.00000  Step:          18  Bead:       0 x_centroid{angstrom}  cell{atomic_unit}
       C -3.28756e-01 -1.37304e-01  8.32824e-02
       O  8.31382e-01  2.85441e-01 -1.80257e-01
       H -1.02535e-01  8.75502e-01 -5.78597e-01
       H -3.39078e-01 -1.10164e+00  6.30751e-01
       L  5.52143e+01 -1.56163e+00 -5.58298e-01
       L  1.46525e+00  9.91028e+00 -3.87504e+00
6
# CELL(abcABC):  459.05226   459.05226   459.05226    90.00000    90.00000    90.00000  Step:          19  Bead:       0 x_centroid{angstrom}  cell{atomic_unit}
       C -3.29117e-01 -1.39405e-01  8.44390e-02
       O  8.30782e-01  2.87302e-01 -1.81063e-01
       H -9.72733e-02  8.75021e-01 -5.74013e-01
       H -3.30408e-01 -1.10575e+00  6.25232e-01
       L  5.49404e+01 -1.50890e+00 -7.42484e-01
       L  1.56718e+00  1.00228e+01 -3.79605e+00
6
# CELL(abcABC):  459.05226   459.05226   459.05226    90.00000    90.00000    90.00000  Step:          20  Bead:       0 x_centroid{angstrom}  cell{atomic_unit}
       C -3.29618e-01 -1.41695e-01  8.59252e-02
       O  8.30524e-01  2.89367e-01 -1.81969e-01
       H -9.38948e-02  8.71234e-01 -5.69582e-01
       H -3.23632e-01 -1.10748e+00  6.17505e-01
       L  5.46474e+01 -1.47623e+00 -9.07614e-01
       L  1.67095e+00  1.00567e+01 -3.69863e+00
6
# CELL(abcABC):  459.05226   459.05226   459.05226    90.00000    90.00000    90.00000  Step:          21  Bead:       0 x_centroid{angstrom}  cell{atomic_unit}
       C -3.30376e-01 -1.44378e-01  8.75970e-02
       O  8.30755e-01  2.91751e-01 -1.82995e-01
       H -9.39861e-02  8.64632e-01 -5.65774e-01
       H -3.18043e-01 -1.10680e+00  6.10055e-01
       L  5.43555e+01 -1.42432e+00 -1.05028e+00
       L  1.71946e+00  1.00780e+01 -3.52790e+00
6
# CELL(abcABC):  459.05226   459.05226   459.05226    90.00000    90.00000    90.00000  Step:          22  Bead:       0 x_centroid{angstrom}  cell{atomic_unit}
       C -3.31428e-01 -1.47289e-01  8.93614e-02
       O  8.31501e-01  2.94178e-01 -1.84007e-01
       H -9.57624e-02  8.58466e-01 -5.62893e-01
       H -3.15452e-01 -1.10451e+00  6.02170e-01
       L  5.40567e+01 -1.34169e+00 -1.16525e+00
       L  1.81913e+00  1.00778e+01 -3.33446e+00
6
# CELL(abcABC):  459.05226   459.05226   459.05226    90.00000    90.00000    90.00000  Step:          23  Bead:       0 x_centroid{angstrom}  cell{atomic_unit}
       C -3.32765e-01 -1.50242e-01  9.10892e-02
       O  8.32441e-01  2.96532e-01 -1.85021e-01
       H -9.72170e-02  8.54087e-01 -5.60377e-01
       H -3.12856e-01 -1.10238e+00  5.95092e-01
       L  5.37377e+01 -1.25677e+00 -1.25915e+00
       L  1.89927e+00  1.01112e+01 -3.10301e+00
6
# CELL(abcABC):  459.05226   459.05226   459.05226    90.00000    90.00000    90.00000  Step:          24  Bead:       0 x_centroid{angstrom}  cell{atomic_unit}
       C -3.34215e-01 -1.53173e-01  9.28499e-02
       O  8.33225e-01  2.98757e-01 -1.86032e-01
       H -9.57195e-02  8.54507e-01 -5.59618e-01
       H -3.09373e-01 -1.10333e+00  5.89305e-01
       L  5.34357e+01 -1.14039e+00 -1.32835e+00
       L  1.91428e+00  1.02661e+01 -2.85800e+00
6
# CELL(abcABC):  459.05226   459.05226   459.05226    90.00000    90.00000    90.00000  Step:          25  Bead:       0 x_centroid{angstrom}  cell{atomic_unit}
       C -3.35367e-01 -1.55785e-01  9.47166e-02
       O  8.33744e-01  3.00637e-01 -1.87151e-01
       H -9.23729e-02  8.59115e-01 -5.62121e-01
       H -3.07005e-01 -1.10682e+00  5.87232e-01
       L  5.30712e+01 -1.04093e+00 -1.42242e+00
       L  1.86487e+00  1.04688e+01 -2.59774e+00
6
# CELL(abcABC):  459.05226   459.05226   459.05226    90.00000    90.00000    90.00000  Step:          26  Bead:       0 x_centroid{angstrom}  cell{atomic_unit}
       C -3.36539e-01 -1.58596e-01  9.62647e-02
       O  8.34109e-01  3.02508e-01 -1.88170e-01
       H -8.65455e-02  8.68045e-01 -5.65470e-01
       H -3.04444e-01 -1.11211e+00  5.88154e-01
       L  5.27037e+01 -9.21085e-01 -1.43068e+00
       L  1.84691e+00  1.06593e+01 -2.31251e+00
6
# CELL(abcABC):  459.05226   459.05226   459.05226    90.00000    90.00000    90.00000  Step:          27  Bead:       0 x_centroid{angstrom}  cell{atomic_unit}
       C -3.37849e-01 -1.61563e-01  9.80393e-02
       O  8.34594e-01  3.04561e-01 -1.89364e-01
       H -8.09701e-02  8.78312e-01 -5.69463e-01
       H -3.01889e-01 -1.11981e+00  5.89783e-01
       L  5.23577e+01 -8.06552e-01 -1.40092e+00
       L  1.80353e+00  1.08908e+01 -2.02453e+00
6
# CELL(abcABC):  459.05226   459.05226   459.05226    90.00000    90.00000    90.00000  Step:          28  Bead:       0 x_centroid{angstrom}  cell{atomic_unit}
       C -3.39416e-01 -1.64702e-01  9.96969e-02
       O  8.35376e-01  3.06753e-01 -1.90487e-01
       H -7.67720e-02  8.88559e-01 -5.73425e-01
       H -2.99550e-01 -1.12770e+00  5.91631e-01
       L  5.19220e+01 -6.47189e-01 -1.31332e+00
       L  1.72874e+00  1.11678e+01 -1.75743e+00
6
# CELL(abcABC):  459.05226   459.05226   459.05226    90.00000    90.00000    90.00000  Step:          29  Bead:       0 x_centroid{angstrom}  cell{atomic_unit}
       C -3.41151e-01 -1.67994e-01  1.01207e-01
       O  8.36504e-01  3.09207e-01 -1.91613e-01
       H -7.49057e-02  8.96439e-01 -5.75807e-01
       H -2.98312e-01 -1.13555e+00  5.93673e-01
       L  5.14265e+01 -4.58070e-01 -1.20788e+00
       L  1.59419e+00  1.14465e+01 -1.47340e+00
6
# CELL(abcABC):  459.05226   459.05226   459.05226    90.00000    90.00000    90.00000  Step:          30  Bead:       0 x_centroid{angstrom}  cell{atomic_unit}
       C -3.43325e-01 -1.71597e-01  1.02734e-01
       O  8.38197e-01  3.11979e-01 -1.92810e-01
       H -7.42659e-02  9.02310e-01 -5.76185e-01
       H -2.99541e-01 -1.14273e+00  5.94635e-01
       L  5.08882e+01 -2.77402e-01 -1.11184e+00
       L  1.43725e+00  1.17131e+01 -1.15738e+00
6
# CELL(abcABC):  459.05226   459.05226   459.05226    90.00000    90.00000    90.00000  Step:          31  Bead:       0 x_centroid{angstrom}  cell{atomic_unit}
       C -3.45447e-01 -1.75046e-01  1.04436e-01
       O  8.39955e-01  3.14791e-01 -1.94174e-01
       H -7.32790e-02  9.04466e-01 -5.74690e-01
       H -3.02728e-01 -1.14870e+00  5.94242e-01
       L  5.02676e+01 -6.22683e-02 -1.01277e+00
       L  1.28984e+00  1.20170e+01 -7.88118e-01
6
# CELL(abcABC):  459.05226   459.05226   459.05226    90.00000    90.00000    90.00000  Step:          32  Bead:       0 x_centroid{angstrom}  cell{atomic_unit}
       C -3.47471e-01 -1.78510e-01  1.06241e-01
       O  8.41542e-01  3.17851e-01 -1.95680e-01
       H -7.08627e-02  9.02366e-01 -5.70934e-01
       H -3.05786e-01 -1.15415e+00  5.92642e-01
       L  4.96166e+01  1.07298e-01 -9.13210e-01
       L  1.15076e+00  1.22873e+01 -4.28793e-01
6
# CELL(abcABC):  459.05226   459.05226   459.05226    90.00000    90.00000    90.00000  Step:          33  Bead:       0 x_centroid{angstrom}  cell{atomic_unit}
       C -3.49613e-01 -1.82103e-01  1.08135e-01
       O  8.43078e-01  3.21209e-01 -1.97306e-01
       H -6.56335e-02  8.97316e-01 -5.66064e-01
       H -3.09391e-01 -1.15984e+00  5.90793e-01
       L  4.89191e+01  3.18650e-01 -8.31289e-01
       L  9.47971e-01  1.25608e+01 -1.10715e-01
6
# CELL(abcABC):  459.05226   459.05226   459.05226    90.00000    90.00000    90.00000  Step:          34  Bead:       0 x_centroid{angstrom}  cell{atomic_unit}
       C -3.51737e-01 -1.85734e-01  1.10061e-01
       O  8.44227e-01  3.24576e-01 -1.99053e-01
       H -5.48668e-02  8.91234e-01 -5.61067e-01
       H -3.12555e-01 -1.16418e+00  5.90351e-01
       L  4.81891e+01  4.86580e-01 -7.63304e-01
       L  7.09599e-01  1.28341e+01  2.37170e-01
6
# CELL(abcABC):  459.05226   459.05226   459.05226    90.00000    90.00000    90.00000  Step:          35  Bead:       0 x_centroid{angstrom}  cell{atomic_unit}
       C -3.53406e-01 -1.89385e-01  1.11810e-01
       O  8.44662e-01  3.27880e-01 -2.00725e-01
       H -3.89014e-02  8.86017e-01 -5.55458e-01
       H -3.14995e-01 -1.16816e+00  5.90231e-01
       L  4.74159e+01  6.62816e-01 -7.09449e-01
       L  4.88438e-01  1.31494e+01  5.74947e-01
6
# CELL(abcABC):  459.05226   459.05226   459.05226    90.00000    90.00000    90.00000  Step:          36  Bead:       0 x_centroid{angstrom}  cell{atomic_unit}
       C -3.54797e-01 -1.93162e-01  1.13675e-01
       O  8.44666e-01  3.31145e-01 -2.02581e-01
       H -1.91501e-02  8.83823e-01 -5.49591e-01
       H -3.17641e-01 -1.17307e+00  5.91377e-01
       L  4.65823e+01  8.33521e-01 -6.32993e-01
       L  2.33841e-01  1.34931e+01  8.96193e-01
6
# CELL(abcABC):  459.05226   459.05226   459.05226    90.00000    90.00000    90.00000  Step:          37  Bead:       0 x_centroid{angstrom}  cell{atomic_unit}
       C -3.56430e-01 -1.97191e-01  1.15860e-01
       O  8.44641e-01  3.34361e-01 -2.04704e-01
       H  2.34868e-03  8.85202e-01 -5.44623e-01
       H -3.18655e-01 -1.17773e+00  5.93861e-01
       L  4.57191e+01  9.50596e-01 -5.03018e-01
       L -6.35515e-02  1.38135e+01  1.17970e+00
6
# CELL(abcABC):  459.05226   459.05226   459.05226    90.00000    90.00000    90.00000  Step:          38  Bead:       0 x_centroid{angstrom}  cell{atomic_unit}
       C -3.58661e-01 -2.01412e-01  1.17785e-01
       O  8.45011e-01  3.37417e-01 -2.06618e-01
       H  2.44023e-02  8.90932e-01 -5.40100e-01
       H -3.19297e-01 -1.18189e+00  5.96554e-01
       L  4.47409e+01  1.03216e+00 -3.78738e-01
       L -3.73618e-01  1.41457e+01  1.46380e+00
6
# CELL(abcABC):  459.05226   459.05226   459.05226    90.00000    90.00000    90.00000  Step:          39  Bead:       0 x_centroid{angstrom}  cell{atomic_unit}
       C -3.61588e-01 -2.05717e-01  1.19519e-01
       O  8.46024e-01  3.40290e-01 -2.08313e-01
       H  4.42637e-02  9.00545e-01 -5.37744e-01
       H -3.19552e-01 -1.18599e+00  6.00226e-01
       L  4.35839e+01  1.05209e+00 -2.26552e-01
       L -6.96089e-01  1.44365e+01  1.70345e+00
6
# CELL(abcABC):  459.05226   459.05226   459.05226    90.00000    90.00000    90.00000  Step:          40  Bead:       0 x_centroid{angstrom}  cell{atomic_unit}
       C -3.65178e-01 -2.10675e-01  1.21494e-01
       O  8.47624e-01  3.43430e-01 -2.10134e-01
       H  6.22183e-02  9.13901e-01 -5.36150e-01
       H -3.19243e-01 -1.19023e+00  6.03735e-01
       L  4.22734e+01  1.03556e+00 -2.20238e-02
       L -1.00865e+00  1.46792e+01  1.99741e+00
6
# CELL(abcABC):  459.05226   459.05226   459.05226    90.00000    90.00000    90.00000  Step:          41  Bead:       0 x_centroid{angstrom}  cell{atomic_unit}
       C -3.69569e-01 -2.15945e-01  1.23547e-01
       O  8.49731e-01  3.46649e-01 -2.11949e-01
       H  8.05035e-02  9.29063e-01 -5.35843e-01
       H -3.17702e-01 -1.19380e+00  6.07476e-01
       L  4.08176e+01  1.03237e+00  2.11258e-01
       L -1.30836e+00  1.48906e+01  2.30981e+00
6
# CELL(abcABC):  459.05226   459.05226   459.05226    90.00000    90.00000    90.00000  Step:          42  Bead:       0 x_centroid{angstrom}  cell{atomic_unit}
       C -3.74849e-01 -2.21510e-01  1.25950e-01
       O  8.52513e-01  3.49863e-01 -2.14012e-01
       H  9.86616e-02  9.46343e-01 -5.36062e-01
       H -3.16156e-01 -1.19593e+00  6.11555e-01
       L  3.93092e+01  1.03863e+00  4.28388e-01
       L -1.52572e+00  1.51440e+01  2.54297e+00
6
# CELL(abcABC):  459.05226   459.05226   459.05226    90.00000    90.00000    90.00000  Step:          43  Bead:       0 x_centroid{angstrom}  cell{atomic_unit}
       C -3.80670e-01 -2.27485e-01  1.28827e-01
       O  8.55498e-01  3.53254e-01 -2.16364e-01
       H  1.19294e-01  9.65297e-01 -5.37595e-01
       H -3.13850e-01 -1.19765e+00  6.15909e-01
       L  3.77232e+01  1.03855e+00  6.71411e-01
       L -1.69444e+00  1.53908e+01  2.74144e+00
6
# CELL(abcABC):  459.05226   459.05226   459.05226    90.00000    90.00000    90.00000  Step:          44  Bead:       0 x_centroid{angstrom}  cell{atomic_unit}
       C -3.86935e-01 -2.33626e-01  1.31553e-01
       O  8.58477e-01  3.56815e-01 -2.18534e-01
       H  1.44004e-01  9.84956e-01 -5.39954e-01
       H -3.10205e-01 -1.20079e+00  6.19969e-01
       L  3.60652e+01  1.02519e+00  9.49072e-01
       L -1.84603e+00  1.56509e+01  2.92245e+00
6
# CELL(abcABC):  459.05226   459.05226   459.05226    90.00000    90.00000    90.00000  Step:          45  Bead:       0 x_centroid{angstrom}  cell{atomic_unit}
       C -3.93282e-01 -2.40061e-01  1.34506e-01
       O  8.61138e-01  3.60678e-01 -2.20744e-01
       H  1.73362e-01  1.00398e+00 -5.43325e-01
       H -3.05164e-01 -1.20455e+00  6.22996e-01
       L  3.43863e+01  1.02482e+00  1.24874e+00
       L -2.01729e+00  1.58418e+01  3.06802e+00
6
# CELL(abcABC):  459.05226   459.05226   459.05226    90.00000    90.00000    90.00000  Step:          46  Bead:       0 x_centroid{angstrom}  cell{atomic_unit}
       C -3.99996e-01 -2.46629e-01  1.37666e-01
       O  8.63679e-01  3.64629e-01 -2.23106e-01
       H  2.07868e-01  1.02220e+00 -5.45399e-01
       H -2.98984e-01 -1.20730e+00  6.24662e-01
       L  3.26526e+01  1.00868e+00  1.57091e+00
       L -2.15354e+00  1.60043e+01  3.20267e+00
6
# CELL(abcABC):  459.05226   459.05226   459.05226    90.00000    90.00000    90.00000  Step:          47  Bead:       0 x_centroid{angstrom}  cell{atomic_unit}
       C -4.06864e-01 -2.53193e-01  1.40795e-01
       O  8.65943e-01  3.68649e-01 -2.25247e-01
       H  2.46811e-01  1.03816e+00 -5.48318e-01
       H -2.91017e-01 -1.20895e+00  6.24089e-01
       L  3.08900e+01  1.01730e+00  1.86534e+00
       L -2.23125e+00  1.61716e+01  3.26957e+00
6
# CELL(abcABC):  459.05226   459.05226   459.05226    90.00000    90.00000    90.00000  Step:          48  Bead:       0 x_centroid{angstrom}  cell{atomic_unit}
       C -4.13622e-01 -2.59480e-01  1.43958e-01
       O  8.67848e-01  3.72495e-01 -2.27413e-01
       H  2.89629e-01  1.05277e+00 -5.51099e-01
       H -2.82560e-01 -1.20976e+00  6.23386e-01
       L  2.91291e+01  1.00776e+00  2.11638e+00
       L -2.30505e+00  1.63096e+01  3.33580e+00
6
# CELL(abcABC):  459.05226   459.05226   459.05226    90.00000    90.00000    90.00000  Step:          49  Bead:       0 x_centroid{angstrom}  cell{atomic_unit}
       C -4.20188e-01 -2.65814e-01  1.47100e-01
       O  8.69330e-01  3.76371e-01 -2.29576e-01
       H  3.34933e-01  1.06866e+00 -5.54147e-01
       H -2.72209e-01 -1.21174e+00  6.23208e-01
       L  2.73816e+01  9.71124e-01  2.28239e+00
       L -2.28711e+00  1.64051e+01  3.39128e+00
6
# CELL(abcABC):  459.05226   459.05226   459.05226    90.00000    90.00000    90.00000  Step:          50  Bead:       0 x_centroid{angstrom}  cell{atomic_unit}
       C -4.26412e-01 -2.71694e-01  1.50053e-01
       O  8.70363e-01  3.79870e-01 -2.31334e-01
       H  3.81378e-01  1.08715e+00 -5.60637e-01
       H -2.59915e-01 -1.21575e+00  6.22312e-01
       L  2.56076e+01  9.53065e-01  2.44932e+00
       L -2.28615e+00  1.65192e+01  3.39960e+00
6
# CELL(abcABC):  459.05226   459.05226   459.05226    90.00000    90.00000    90.00000  Step:          51  Bead:       0 x_centroid{angstrom}  cell{atomic_unit}
       C -4.32379e-01 -2.77096e-01  1.53026e-01
       O  8.71111e-01  3.82811e-01 -2.33017e-01
       H  4.27166e-01  1.10912e+00 -5.68745e-01
       H -2.45519e-01 -1.22012e+00  6.21648e-01
       L  2.38456e+01  9.86929e-01  2.57627e+00
       L -2.27017e+00  1.66675e+01  3.39531e+00
6
# CELL(abcABC):  459.05226   459.05226   459.05226    90.00000    90.00000    90.00000  Step:          52  Bead:       0 x_centroid{angstrom}  cell{atomic_unit}
       C -4.37711e-01 -2.82319e-01  1.55933e-01
       O  8.71463e-01  3.85540e-01 -2.34452e-01
       H  4.71021e-01  1.13283e+00 -5.79613e-01
       H -2.30456e-01 -1.22500e+00  6.20559e-01
       L  2.20699e+01  1.04146e+00  2.67608e+00
       L -2.26428e+00  1.67439e+01  3.45128e+00
6
# CELL(abcABC):  459.05226   459.05226   459.05226    90.00000    90.00000    90.00000  Step:          53  Bead:       0 x_centroid{angstrom}  cell{atomic_unit}
       C -4.42781e-01 -2.87409e-01  1.58876e-01
       O  8.71684e-01  3.88206e-01 -2.35655e-01
       H  5.12853e-01  1.15700e+00 -5.93997e-01
       H -2.14424e-01 -1.23093e+00  6.18903e-01
       L  2.03076e+01  1.14146e+00  2.76853e+00
       L -2.26860e+00  1.68137e+01  3.49133e+00
6
# CELL(abcABC):  459.05226   459.05226   459.05226    90.00000    90.00000    90.00000  Step:          54  Bead:       0 x_centroid{angstrom}  cell{atomic_unit}
       C -4.47635e-01 -2.92313e-01  1.62124e-01
       O  8.71919e-01  3.90823e-01 -2.36844e-01
       H  5.51477e-01  1.17963e+00 -6.10182e-01
       H -1.97992e-01 -1.23670e+00  6.15217e-01
       L  1.85602e+01  1.24357e+00  2.82997e+00
       L -2.26259e+00  1.68054e+01  3.49037e+00
6
# CELL(abcABC):  459.05226   459.05226   459.05226    90.00000    90.00000    90.00000  Step:          55  Bead:       0 x_centroid{angstrom}  cell{atomic_unit}
       C -4.52399e-01 -2.97250e-01  1.65569e-01
       O  8.72219e-01  3.93644e-01 -2.38079e-01
       H  5.88021e-01  1.19878e+00 -6.26101e-01
       H -1.81599e-01 -1.24177e+00  6.09690e-01
       L  1.68065e+01  1.26354e+00  2.90490e+00
       L -2.20845e+00  1.67002e+01  3.43454e+00
6
# CELL(abcABC):  459.05226   459.05226   459.05226    90.00000    90.00000    90.00000  Step:          56  Bead:       0 x_centroid{angstrom}  cell{atomic_unit}
       C -4.57210e-01 -3.02073e-01  1.69008e-01
       O  8.72842e-01  3.96648e-01 -2.39167e-01
       H  6.20851e-01  1.21215e+00 -6.42090e-01
       H -1.66101e-01 -1.24526e+00  6.02055e-01
       L  1.50639e+01  1.30175e+00  2.88431e+00
       L -2.11123e+00  1.65157e+01  3.29230e+00
6
# CELL(abcABC):  459.05226   459.05226   459.05226    90.00000    90.00000    90.00000  Step:          57  Bead:       0 x_centroid{angstrom}  cell{atomic_unit}
       C -4.61784e-01 -3.06681e-01  1.72652e-01
       O  8.73695e-01  3.99693e-01 -2.40174e-01
       H  6.48643e-01  1.21991e+00 -6.58622e-01
       H -1.52052e-01 -1.24635e+00  5.91242e-01
       L  1.33110e+01  1.35305e+00  2.90162e+00
       L -1.97930e+00  1.62828e+01  3.09570e+00
6
# CELL(abcABC):  459.05226   459.05226   459.05226    90.00000    90.00000    90.00000  Step:          58  Bead:       0 x_centroid{angstrom}  cell{atomic_unit}
       C -4.65968e-01 -3.10845e-01  1.76563e-01
       O  8.74535e-01  4.02770e-01 -2.41183e-01
       H  6.73895e-01  1.22079e+00 -6.75338e-01
       H -1.39940e-01 -1.24629e+00  5.77510e-01
       L  1.15559e+01  1.42047e+00  2.88431e+00
       L -1.76869e+00  1.59068e+01  2.85234e+00
6
# CELL(abcABC):  459.05226   459.05226   459.05226    90.00000    90.00000    90.00000  Step:          59  Bead:       0 x_centroid{angstrom}  cell{atomic_unit}
       C -4.69813e-01 -3.14687e-01  1.80942e-01
       O  8.75257e-01  4.05933e-01 -2.42430e-01
       H  6.95722e-01  1.21733e+00 -6.91906e-01
       H -1.26609e-01 -1.24703e+00  5.61873e-01
       L  9.90500e+00  1.49715e+00  2.80209e+00
       L -1.56586e+00  1.54247e+01  2.59639e+00
6
# CELL(abcABC):  459.05226   459.05226   459.05226    90.00000    90.00000    90.00000  Step:          60  Bead:       0 x_centroid{angstrom}  cell{atomic_unit}
       C -4.72998e-01 -3.17638e-01  1.85175e-01
       O  8.75609e-01  4.08760e-01 -2.43530e-01
       H  7.15865e-01  1.20997e+00 -7.07847e-01
       H -1.13582e-01 -1.24909e+00  5.45031e-01
       L  8.20448e+00  1.52723e+00  2.71497e+00
       L -1.35414e+00  1.48551e+01  2.34232e+00
6
# CELL(abcABC):  459.05226   459.05226   459.05226    90.00000    90.00000    90.00000  Step:          61  Bead:       0 x_centroid{angstrom}  cell{atomic_unit}
       C -4.75257e-01 -3.19669e-01  1.89016e-01
       O  8.75156e-01  4.10966e-01 -2.44359e-01
       H  7.35271e-01  1.20159e+00 -7.22512e-01
       H -9.81317e-02 -1.25118e+00  5.27297e-01
       L  6.53293e+00  1.50931e+00  2.59319e+00
       L -1.07142e+00  1.42712e+01  2.05596e+00
6
# CELL(abcABC):  459.05226   459.05226   459.05226    90.00000    90.00000    90.00000  Step:          62  Bead:       0 x_centroid{angstrom}  cell{atomic_unit}
       C -4.76728e-01 -3.20743e-01  1.92435e-01
       O  8.74011e-01  4.12482e-01 -2.44823e-01
       H  7.53761e-01  1.19387e+00 -7.38652e-01
       H -8.01890e-02 -1.25443e+00  5.10326e-01
       L  4.89395e+00  1.47741e+00  2.46590e+00
       L -7.69205e-01  1.37155e+01  1.72576e+00
6
# CELL(abcABC):  459.05226   459.05226   459.05226    90.00000    90.00000    90.00000  Step:          63  Bead:       0 x_centroid{angstrom}  cell{atomic_unit}
       C -4.76780e-01 -3.21013e-01  1.95060e-01
       O  8.71865e-01  4.13127e-01 -2.44706e-01
       H  7.69403e-01  1.19003e+00 -7.55942e-01
       H -6.04327e-02 -1.25724e+00  4.94783e-01
       L  3.26555e+00  1.36778e+00  2.28191e+00
       L -4.45723e-01  1.31557e+01  1.35538e+00
6
# CELL(abcABC):  459.05226   459.05226   459.05226    90.00000    90.00000    90.00000  Step:          64  Bead:       0 x_centroid{angstrom}  cell{atomic_unit}
       C -4.75551e-01 -3.20305e-01  1.97120e-01
       O  8.68787e-01  4.12945e-01 -2.44286e-01
       H  7.83608e-01  1.18838e+00 -7.72644e-01
       H -3.97235e-02 -1.26077e+00  4.80576e-01
       L  1.67912e+00  1.25621e+00  2.07262e+00
       L -1.35857e-01  1.26121e+01  9.60718e-01
6
# CELL(abcABC):  459.05226   459.05226   459.05226    90.00000    90.00000    90.00000  Step:          65  Bead:       0 x_centroid{angstrom}  cell{atomic_unit}
       C -4.73327e-01 -3.18578e-01  1.98914e-01
       O  8.65035e-01  4.11895e-01 -2.43741e-01
       H  7.96658e-01  1.18829e+00 -7.89742e-01
       H -1.90318e-02 -1.26427e+00  4.67912e-01
       L  4.86779e-02  1.16330e+00  1.92996e+00
       L  2.13927e-01  1.20874e+01  6.32446e-01
6
# CELL(abcABC):  459.05226   459.05226   459.05226    90.00000    90.00000    90.00000  Step:          66  Bead:       0 x_centroid{angstrom}  cell{atomic_unit}
       C -4.70070e-01 -3.16346e-01  2.00219e-01