6
# CELL(abcABC):  459.05226   459.05226   459.05226    90.00000    90.00000    90.00000  Step:           0  Bead:       0 x_centroid{angstrom}  cell{atomic_unit}
       C -3.39887e-01 -1.13437e-01  8.06659e-02
       O  8.43483e-01  2.62672e-01 -1.81512e-01
       H -7.35799e-02  8.16467e-01 -6.61432e-01
       H -4.30016e-01 -9.65701e-01  7.62278e-01
       L  6.13458e+01  0.00000e+00  0.00000e+00
       L  0.00000e+00  8.59064e+00  0.00000e+00
6
# CELL(abcABC):  459.05226   459.05226   459.05226    90.00000    90.00000    90.00000  Step:           1  Bead:       0 x_centroid{angstrom}  cell{atomic_unit}
       C -3.41942e-01 -1.13877e-01  7.92302e-02
       O  8.44933e-01  2.63609e-01 -1.79673e-01
       H -7.85235e-02  8.19701e-01 -6.70397e-01
       H -4.23689e-01 -9.78626e-01  7.59321e-01
       L  6.17070e+01  3.63612e-01 -3.92283e-01
       L -2.14357e-01  8.31509e+00  7.00605e-02
6
# CELL(abcABC):  459.05226   459.05226   459.05226    90.00000    90.00000    90.00000  Step:           2  Bead:       0 x_centroid{angstrom}  cell{atomic_unit}
       C -3.43888e-01 -1.14321e-01  7.77447e-02
       O  8.46166e-01  2.64518e-01 -1.77850e-01
       H -8.06838e-02  8.22776e-01 -6.78275e-01
       H -4.18006e-01 -9.90877e-01  7.56170e-01
       L  6.20877e+01  7.05371e-01 -8.25169e-01
       L -4.00269e-01  8.02915e+00  1.32979e-01
6
# CELL(abcABC):  459.05226   459.05226   459.05226    90.00000    90.00000    90.00000  Step:           3  Bead:       0 x_centroid{angstrom}  cell{atomic_unit}
       C -3.45746e-01 -1.14993e-01  7.61565e-02
       O  8.47174e-01  2.65609e-01 -1.75965e-01
       H -8.00622e-02  8.24879e-01 -6.85127e-01
       H -4.12678e-01 -1.00235e+00  7.52256e-01
       L  6.25462e+01  1.03528e+00 -1.31558e+00
       L -5.32494e-01  7.83457e+00  1.90726e-01
6
# CELL(abcABC):  459.05226   459.05226   459.05226    90.00000    90.00000    90.00000  Step:           4  Bead:       0 x_centroid{angstrom}  cell{atomic_unit}
       C -3.47918e-01 -1.15669e-01  7.49901e-02
       O  8.48211e-01  2.66739e-01 -1.74472e-01
       H -7.57289e-02  8.25604e-01 -6.89834e-01
       H -4.07780e-01 -1.01300e+00  7.47402e-01
       L  6.30671e+01  1.29938e+00 -1.79988e+00
       L -6.79874e-01  7.64898e+00  2.52442e-01
6
# CELL(abcABC):  459.05226   459.05226   459.05226    90.00000    90.00000    90.00000  Step:           5  Bead:       0 x_centroid{angstrom}  cell{atomic_unit}
       C -3.50239e-01 -1.16558e-01  7.37458e-02
       O  8.49386e-01  2.68149e-01 -1.72859e-01
       H -7.21945e-02  8.24045e-01 -6.93452e-01
       H -4.02458e-01 -1.02327e+00  7.40455e-01
       L  6.35693e+01  1.51181e+00 -2.26407e+00
       L -9.14445e-01  7.49540e+00  3.26553e-01
6
# CELL(abcABC):  459.05226   459.05226   459.05226    90.00000    90.00000    90.00000  Step:           6  Bead:       0 x_centroid{angstrom}  cell{atomic_unit}
       C -3.52424e-01 -1.17470e-01  7.25646e-02
       O  8.50509e-01  2.69619e-01 -1.71351e-01
       H -6.89986e-02  8.19461e-01 -6.94716e-01
       H -3.97560e-01 -1.03116e+00  7.32061e-01
       L  6.40624e+01  1.71704e+00 -2.68373e+00
       L -1.18270e+00  7.31351e+00  3.62025e-01
6
# CELL(abcABC):  459.05226   459.05226   459.05226    90.00000    90.00000    90.00000  Step:           7  Bead:       0 x_centroid{angstrom}  cell{atomic_unit}
       C -3.54556e-01 -1.18406e-01  7.16947e-02
       O  8.51717e-01  2.70973e-01 -1.69948e-01
       H -6.71495e-02  8.13794e-01 -6.95596e-01
       H -3.93284e-01 -1.03585e+00  7.21255e-01
       L  6.45451e+01  1.96994e+00 -3.09250e+00
       L -1.46367e+00  7.07959e+00  3.65489e-01
6
# CELL(abcABC):  459.05226   459.05226   459.05226    90.00000    90.00000    90.00000  Step:           8  Bead:       0 x_centroid{angstrom}  cell{atomic_unit}
       C -3.56344e-01 -1.19340e-01  7.07658e-02
       O  8.52894e-01  2.72101e-01 -1.68529e-01
       H -6.69962e-02  8.09212e-01 -6.97054e-01
       H -3.90923e-01 -1.03809e+00  7.11489e-01
       L  6.49716e+01  2.19799e+00 -3.46933e+00
       L -1.72329e+00  6.94515e+00  3.36046e-01
6
# CELL(abcABC):  459.05226   459.05226   459.05226    90.00000    90.00000    90.00000  Step:           9  Bead:       0 x_centroid{angstrom}  cell{atomic_unit}
       C -3.58127e-01 -1.20379e-01  6.98051e-02
       O  8.54111e-01  2.72940e-01 -1.67048e-01
       H -6.72539e-02  8.08094e-01 -6.99213e-01
       H -3.88832e-01 -1.03800e+00  7.01787e-01
       L  6.54130e+01  2.41118e+00 -3.79082e+00
       L -1.97325e+00  6.91011e+00  2.80572e-01
6
# CELL(abcABC):  459.05226   459.05226   459.05226    90.00000    90.00000    90.00000  Step:          10  Bead:       0 x_centroid{angstrom}  cell{atomic_unit}
       C -3.59552e-01 -1.21644e-01  6.87539e-02
       O  8.55000e-01  2.73660e-01 -1.65504e-01
       H -6.66052e-02  8.09830e-01 -7.02029e-01
       H -3.86715e-01 -1.03621e+00  6.92796e-01
       L  6.58184e+01  2.63978e+00 -4.03854e+00
       L -2.18032e+00  6.90397e+00  1.97406e-01
6
# CELL(abcABC):  459.05226   459.05226   459.05226    90.00000    90.00000    90.00000  Step:          11  Bead:       0 x_centroid{angstrom}  cell{atomic_unit}
       C -3.60849e-01 -1.22937e-01  6.76646e-02
       O  8.55844e-01  2.74093e-01 -1.64089e-01
       H -6.53567e-02  8.16522e-01 -7.04792e-01
       H -3.85973e-01 -1.03452e+00  6.86226e-01
       L  6.61503e+01  2.92054e+00 -4.19983e+00
       L -2.39821e+00  6.91194e+00  1.09631e-01
6
# CELL(abcABC):  459.05226   459.05226   459.05226    90.00000    90.00000    90.00000  Step:          12  Bead:       0 x_centroid{angstrom}  cell{atomic_unit}
       C -3.61731e-01 -1.23936e-01  6.63518e-02
       O  8.56239e-01  2.74137e-01 -1.62574e-01
       H -6.19810e-02  8.25775e-01 -7.07331e-01
       H -3.85187e-01 -1.03274e+00  6.80429e-01
       L  6.64377e+01  3.13505e+00 -4.29589e+00
       L -2.53957e+00  7.00506e+00  7.47892e-02
6
# CELL(abcABC):  459.05226   459.05226   459.05226    90.00000    90.00000    90.00000  Step:          13  Bead:       0 x_centroid{angstrom}  cell{atomic_unit}
       C -3.62566e-01 -1.24933e-01  6.49348e-02
       O  8.56590e-01  2.74162e-01 -1.61134e-01
       H -5.89332e-02  8.35945e-01 -7.08552e-01
       H -3.83926e-01 -1.03158e+00  6.75741e-01
       L  6.67273e+01  3.30797e+00 -4.32892e+00
       L -2.69118e+00  7.12272e+00 -2.98808e-03
6
# CELL(abcABC):  459.05226   459.05226   459.05226    90.00000    90.00000    90.00000  Step:          14  Bead:       0 x_centroid{angstrom}  cell{atomic_unit}
       C -3.62973e-01 -1.26081e-01  6.31127e-02
       O  8.56778e-01  2.74219e-01 -1.59624e-01
       H -5.69447e-02  8.45924e-01 -7.07480e-01
       H -3.84089e-01 -1.02894e+00  6.72454e-01
       L  6.69383e+01  3.44324e+00 -4.33421e+00
       L -2.83138e+00  7.23552e+00 -8.36001e-02
6
# CELL(abcABC):  459.05226   459.05226   459.05226    90.00000    90.00000    90.00000  Step:          15  Bead:       0 x_centroid{angstrom}  cell{atomic_unit}
       C -3.63137e-01 -1.26937e-01  6.10366e-02
       O  8.56949e-01  2.74111e-01 -1.58043e-01
       H -5.71993e-02  8.54188e-01 -7.05774e-01
       H -3.84658e-01 -1.02535e+00  6.70382e-01
       L  6.71393e+01  3.50059e+00 -4.28306e+00
       L -2.90644e+00  7.32962e+00 -1.21015e-01
6
# CELL(abcABC):  459.05226   459.05226   459.05226    90.00000    90.00000    90.00000  Step:          16  Bead:       0 x_centroid{angstrom}  cell{atomic_unit}
       C -3.62860e-01 -1.27672e-01  5.85864e-02
       O  8.57057e-01  2.73971e-01 -1.56383e-01
       H -5.95866e-02  8.60577e-01 -7.01826e-01
       H -3.87327e-01 -1.02083e+00  6.69264e-01
       L  6.72375e+01  3.49484e+00 -4.21307e+00
       L -2.94208e+00  7.46138e+00 -1.51323e-01
6
# CELL(abcABC):  459.05226   459.05226   459.05226    90.00000    90.00000    90.00000  Step:          17  Bead:       0 x_centroid{angstrom}  cell{atomic_unit}
       C -3.62337e-01 -1.28009e-01  5.61993e-02
       O  8.57259e-01  2.73778e-01 -1.54815e-01
       H -6.37554e-02  8.63651e-01 -6.96603e-01
       H -3.92648e-01 -1.01689e+00  6.67570e-01
       L  6.73385e+01  3.45847e+00 -4.14117e+00
       L -2.93013e+00  7.60768e+00 -1.78292e-01
6
# CELL(abcABC):  459.05226   459.05226   459.05226    90.00000    90.00000    90.00000  Step:          18  Bead:       0 x_centroid{angstrom}  cell{atomic_unit}
       C -3.61601e-01 -1.28171e-01  5.32848e-02
       O  8.57310e-01  2.73637e-01 -1.53101e-01
       H -6.72497e-02  8.64380e-01 -6.87960e-01
       H -3.98825e-01 -1.01350e+00  6.66334e-01
       L  6.74712e+01  3.37303e+00 -3.99011e+00
       L -2.91656e+00  7.78461e+00 -1.34366e-01
6
# CELL(abcABC):  459.05226   459.05226   459.05226    90.00000    90.00000    90.00000  Step:          19  Bead:       0 x_centroid{angstrom}  cell{atomic_unit}
       C -3.60670e-01 -1.27959e-01  5.00909e-02
       O  8.57173e-01  2.73465e-01 -1.51446e-01
       H -6.93289e-02  8.61940e-01 -6.76476e-01
       H -4.05733e-01 -1.01093e+00  6.66536e-01
       L  6.75678e+01  3.31438e+00 -3.80084e+00
       L -2.88440e+00  7.97979e+00 -1.28217e-01
6
# CELL(abcABC):  459.05226   459.05226   459.05226    90.00000    90.00000    90.00000  Step:          20  Bead:       0 x_centroid{angstrom}  cell{atomic_unit}
       C -3.59276e-01 -1.27552e-01  4.72214e-02
       O  8.56324e-01  2.73422e-01 -1.50257e-01
       H -6.69909e-02  8.56548e-01 -6.63853e-01
       H -4.11334e-01 -1.00974e+00  6.69131e-01
       L  6.76923e+01  3.22504e+00 -3.59678e+00
       L -2.76501e+00  8.15425e+00 -1.25502e-01
6
# CELL(abcABC):  459.05226   459.05226   459.05226    90.00000    90.00000    90.00000  Step:          21  Bead:       0 x_centroid{angstrom}  cell{atomic_unit}
       C -3.57426e-01 -1.27111e-01  4.39885e-02
       O  8.55032e-01  2.73386e-01 -1.48962e-01
       H -6.31203e-02  8.50856e-01 -6.50271e-01
       H -4.16914e-01 -1.00883e+00  6.73362e-01
       L  6.77992e+01  3.14172e+00 -3.36389e+00
       L -2.57559e+00  8.39340e+00 -9.79211e-02
6
# CELL(abcABC):  459.05226   459.05226   459.05226    90.00000    90.00000    90.00000  Step:          22  Bead:       0 x_centroid{angstrom}  cell{atomic_unit}
       C -3.54980e-01 -1.26725e-01  4.05758e-02
       O  8.53443e-01  2.73384e-01 -1.47613e-01
       H -5.95741e-02  8.45694e-01 -6.37310e-01
       H -4.24559e-01 -1.00828e+00  6.79502e-01
       L  6.79133e+01  2.99028e+00 -3.09955e+00
       L -2.35875e+00  8.62911e+00 -6.68018e-02
6
# CELL(abcABC):  459.05226   459.05226   459.05226    90.00000    90.00000    90.00000  Step:          23  Bead:       0 x_centroid{angstrom}  cell{atomic_unit}
       C -3.52129e-01 -1.26082e-01  3.71114e-02
       O  8.51744e-01  2.73123e-01 -1.46352e-01
       H -5.84542e-02  8.40831e-01 -6.23881e-01
       H -4.32870e-01 -1.00694e+00  6.87178e-01
       L  6.80240e+01  2.80817e+00 -2.80751e+00
       L -2.11275e+00  8.82330e+00 -5.73972e-02
6
# CELL(abcABC):  459.05226   459.05226   459.05226    90.00000    90.00000    90.00000  Step:          24  Bead:       0 x_centroid{angstrom}  cell{atomic_unit}
       C -3.48910e-01 -1.25469e-01  3.35539e-02
       O  8.50034e-01  2.72762e-01 -1.44954e-01
       H -6.03327e-02  8.37619e-01 -6.11019e-01
       H -4.42405e-01 -1.00529e+00  6.94341e-01
       L  6.81100e+01  2.56133e+00 -2.51760e+00
       L -1.84364e+00  9.03202e+00 -4.92283e-02
6
# CELL(abcABC):  459.05226   459.05226   459.05226    90.00000    90.00000    90.00000  Step:          25  Bead:       0 x_centroid{angstrom}  cell{atomic_unit}
       C -3.45923e-01 -1.24956e-01  3.01091e-02
       O  8.48889e-01  2.72307e-01 -1.43580e-01
       H -6.61153e-02  8.36162e-01 -5.99846e-01
       H -4.54251e-01 -1.00265e+00  7.02231e-01
       L  6.81685e+01  2.20746e+00 -2.16607e+00
       L -1.51579e+00  9.26620e+00 -5.41473e-02
6
# CELL(abcABC):  459.05226   459.05226   459.05226    90.00000    90.00000    90.00000  Step:          26  Bead:       0 x_centroid{angstrom}  cell{atomic_unit}
       C -3.42721e-01 -1.24911e-01  2.66050e-02
       O  8.47856e-01  2.71941e-01 -1.42081e-01
       H -7.60493e-02  8.37291e-01 -5.90378e-01
       H -4.66248e-01 -9.98454e-01  7.10529e-01
       L  6.81252e+01  1.86695e+00 -1.78851e+00
       L -1.15457e+00  9.51128e+00 -7.71807e-02
6
# CELL(abcABC):  459.05226   459.05226   459.05226    90.00000    90.00000    90.00000  Step:          27  Bead:       0 x_centroid{angstrom}  cell{atomic_unit}
       C -3.39585e-01 -1.24929e-01  2.32616e-02
       O  8.46734e-01  2.71474e-01 -1.40495e-01
       H -8.58591e-02  8.40717e-01 -5.83733e-01
       H -4.76174e-01 -9.94248e-01  7.18353e-01
       L  6.80705e+01  1.57787e+00 -1.39664e+00
       L -7.64041e-01  9.76507e+00 -1.20825e-01
6
# CELL(abcABC):  459.05226   459.05226   459.05226    90.00000    90.00000    90.00000  Step:          28  Bead:       0 x_centroid{angstrom}  cell{atomic_unit}
       C -3.36065e-01 -1.25159e-01  1.99227e-02
       O  8.45214e-01  2.70882e-01 -1.38879e-01
       H -9.40586e-02  8.46803e-01 -5.78394e-01
       H -4.86018e-01 -9.88156e-01  7.26949e-01
       L  6.80839e+01  1.29694e+00 -1.00039e+00
       L -3.76082e-01  9.99458e+00 -1.48162e-01
6
# CELL(abcABC):  459.05226   459.05226   459.05226    90.00000    90.00000    90.00000  Step:          29  Bead:       0 x_centroid{angstrom}  cell{atomic_unit}
       C -3.32395e-01 -1.25369e-01  1.69510e-02
       O  8.43411e-01  2.70286e-01 -1.37363e-01
       H -1.01634e-01  8.52683e-01 -5.75036e-01
       H -4.93803e-01 -9.82029e-01  7.34736e-01
       L  6.81513e+01  1.00981e+00 -6.28095e-01
       L  1.05498e-02  1.02126e+01 -1.41702e-01
6
# CELL(abcABC):  459.05226   459.05226   459.05226    90.00000    90.00000    90.00000  Step:          30  Bead:       0 x_centroid{angstrom}  cell{atomic_unit}
       C -3.28542e-01 -1.25599e-01  1.40678e-02
       O  8.41261e-01  2.69642e-01 -1.35853e-01
       H -1.05783e-01  8.58736e-01 -5.71154e-01
       H -5.01764e-01 -9.75069e-01  7.41051e-01
       L  6.83158e+01  7.19425e-01 -2.65402e-01
       L  4.43447e-01  1.04132e+01 -1.46613e-01
6
# CELL(abcABC):  459.05226   459.05226   459.05226    90.00000    90.00000    90.00000  Step:          31  Bead:       0 x_centroid{angstrom}  cell{atomic_unit}
       C -3.24608e-01 -1.25816e-01  1.12855e-02
       O  8.38880e-01  2.68953e-01 -1.34290e-01
       H -1.08413e-01  8.64245e-01 -5.68198e-01
       H -5.08575e-01 -9.67002e-01  7.46261e-01
       L  6.85191e+01  4.04224e-01  7.01161e-02
       L  8.85198e-01  1.06056e+01 -1.63107e-01
6
# CELL(abcABC):  459.05226   459.05226   459.05226    90.00000    90.00000    90.00000  Step:          32  Bead:       0 x_centroid{angstrom}  cell{atomic_unit}
       C -3.20845e-01 -1.26148e-01  8.76440e-03
       O  8.36596e-01  2.68352e-01 -1.32742e-01
       H -1.12031e-01  8.67920e-01 -5.65804e-01
       H -5.13903e-01 -9.57126e-01  7.49141e-01
       L  6.87536e+01  1.00604e-01  3.86427e-01
       L  1.32934e+00  1.08156e+01 -1.33566e-01
6
# CELL(abcABC):  459.05226   459.05226   459.05226    90.00000    90.00000    90.00000  Step:          33  Bead:       0 x_centroid{angstrom}  cell{atomic_unit}
       C -3.17216e-01 -1.26681e-01  6.64297e-03
       O  8.34474e-01  2.67920e-01 -1.31280e-01
       H -1.18491e-01  8.68432e-01 -5.62987e-01
       H -5.17423e-01 -9.44297e-01  7.48235e-01
       L  6.90663e+01 -2.39031e-01  6.75489e-01
       L  1.78883e+00  1.09252e+01 -1.08677e-01
6
# CELL(abcABC):  459.05226   459.05226   459.05226    90.00000    90.00000    90.00000  Step:          34  Bead:       0 x_centroid{angstrom}  cell{atomic_unit}
       C -3.13870e-01 -1.27146e-01  4.52845e-03
       O  8.32678e-01  2.67551e-01 -1.29592e-01
       H -1.28088e-01  8.65608e-01 -5.59713e-01
       H -5.19622e-01 -9.29938e-01  7.43194e-01
       L  6.93879e+01 -5.61520e-01  9.18844e-01
       L  2.24654e+00  1.09708e+01 -6.30431e-02
6
# CELL(abcABC):  459.05226   459.05226   459.05226    90.00000    90.00000    90.00000  Step:          35  Bead:       0 x_centroid{angstrom}  cell{atomic_unit}
       C -3.10520e-01 -1.27565e-01  2.43308e-03
       O  8.30892e-01  2.67229e-01 -1.27821e-01
       H -1.38576e-01  8.61247e-01 -5.57323e-01
       H -5.21160e-01 -9.15273e-01  7.37524e-01
       L  6.97566e+01 -9.38219e-01  1.17333e+00
       L  2.73118e+00  1.09946e+01 -5.20032e-02
6
# CELL(abcABC):  459.05226   459.05226   459.05226    90.00000    90.00000    90.00000  Step:          36  Bead:       0 x_centroid{angstrom}  cell{atomic_unit}
       C -3.07240e-01 -1.28174e-01  4.56529e-04
       O  8.28896e-01  2.67253e-01 -1.26138e-01
       H -1.47211e-01  8.56204e-01 -5.55766e-01
       H -5.20414e-01 -9.03154e-01  7.32661e-01
       L  7.02076e+01 -1.30552e+00  1.40411e+00
       L  3.18333e+00  1.10045e+01 -1.43858e-02
6
# CELL(abcABC):  459.05226   459.05226   459.05226    90.00000    90.00000    90.00000  Step:          37  Bead:       0 x_centroid{angstrom}  cell{atomic_unit}
       C -3.04170e-01 -1.28555e-01 -1.54800e-03
       O  8.26822e-01  2.67120e-01 -1.24395e-01
       H -1.52675e-01  8.52196e-01 -5.56112e-01
       H -5.19152e-01 -8.92342e-01  7.29091e-01
       L  7.07444e+01 -1.64580e+00  1.59051e+00
       L  3.63096e+00  1.10566e+01  3.38020e-02
6
# CELL(abcABC):  459.05226   459.05226   459.05226    90.00000    90.00000    90.00000  Step:          38  Bead:       0 x_centroid{angstrom}  cell{atomic_unit}
       C -3.00911e-01 -1.29326e-01 -3.87667e-03
       O  8.24364e-01  2.67265e-01 -1.22516e-01
       H -1.54944e-01  8.50690e-01 -5.57676e-01
       H -5.17274e-01 -8.83824e-01  7.28528e-01
       L  7.13525e+01 -1.94751e+00  1.74116e+00
       L  4.07762e+00  1.11097e+01 -1.88741e-03
6
# CELL(abcABC):  459.05226   459.05226   459.05226    90.00000    90.00000    90.00000  Step:          39  Bead:       0 x_centroid{angstrom}  cell{atomic_unit}
       C -2.97826e-01 -1.30215e-01 -6.01327e-03
       O  8.21864e-01  2.67439e-01 -1.20912e-01
       H -1.54716e-01  8.51877e-01 -5.59669e-01
       H -5.15158e-01 -8.77092e-01  7.30463e-01
       L  7.19912e+01 -2.18684e+00  1.88508e+00
       L  4.49411e+00  1.11978e+01 -4.44624e-02
6
# CELL(abcABC):  459.05226   459.05226   459.05226    90.00000    90.00000    90.00000  Step:          40  Bead:       0 x_centroid{angstrom}  cell{atomic_unit}
       C -2.94750e-01 -1.30975e-01 -8.32725e-03
       O  8.19521e-01  2.67587e-01 -1.19259e-01
       H -1.57830e-01  8.54887e-01 -5.62502e-01
       H -5.12094e-01 -8.73320e-01  7.34562e-01
       L  7.27221e+01 -2.39807e+00  2.00478e+00
       L  4.87211e+00  1.13008e+01 -4.02342e-02
6
# CELL(abcABC):  459.05226   459.05226   459.05226    90.00000    90.00000    90.00000  Step:          41  Bead:       0 x_centroid{angstrom}  cell{atomic_unit}
       C -2.92182e-01 -1.31317e-01 -1.04945e-02
       O  8.17832e-01  2.67656e-01 -1.17618e-01
       H -1.65663e-01  8.57978e-01 -5.67120e-01
       H -5.08725e-01 -8.73386e-01  7.38890e-01
       L  7.35676e+01 -2.55897e+00  2.10370e+00
       L  5.24010e+00  1.13587e+01 -2.30118e-02
6
# CELL(abcABC):  459.05226   459.05226   459.05226    90.00000    90.00000    90.00000  Step:          42  Bead:       0 x_centroid{angstrom}  cell{atomic_unit}
       C -2.90462e-01 -1.31474e-01 -1.26412e-02
       O  8.17062e-01  2.67769e-01 -1.16013e-01
       H -1.77964e-01  8.60507e-01 -5.71863e-01
       H -5.05382e-01 -8.75760e-01  7.43694e-01
       L  7.44806e+01 -2.68979e+00  2.19491e+00
       L  5.58791e+00  1.13423e+01 -3.06032e-02
6
# CELL(abcABC):  459.05226   459.05226   459.05226    90.00000    90.00000    90.00000  Step:          43  Bead:       0 x_centroid{angstrom}  cell{atomic_unit}
       C -2.89027e-01 -1.31529e-01 -1.44826e-02
       O  8.16851e-01  2.67936e-01 -1.14515e-01
       H -1.94706e-01  8.62634e-01 -5.77820e-01
       H -5.03006e-01 -8.79794e-01  7.47785e-01
       L  7.53971e+01 -2.79757e+00  2.27427e+00
       L  5.82049e+00  1.12941e+01 -7.11835e-02
6
# CELL(abcABC):  459.05226   459.05226   459.05226    90.00000    90.00000    90.00000  Step:          44  Bead:       0 x_centroid{angstrom}  cell{atomic_unit}
       C -2.87846e-01 -1.31209e-01 -1.62590e-02
       O  8.17056e-01  2.67951e-01 -1.13077e-01
       H -2.14384e-01  8.64794e-01 -5.84382e-01
       H -5.01331e-01 -8.85975e-01  7.52644e-01
       L  7.64322e+01 -2.82363e+00  2.34984e+00
       L  6.01252e+00  1.12639e+01 -6.62826e-02
6
# CELL(abcABC):  459.05226   459.05226   459.05226    90.00000    90.00000    90.00000  Step:          45  Bead:       0 x_centroid{angstrom}  cell{atomic_unit}
       C -2.86650e-01 -1.30999e-01 -1.82245e-02
       O  8.17156e-01  2.67991e-01 -1.11622e-01
       H -2.32675e-01  8.68944e-01 -5.90774e-01
       H -4.99563e-01 -8.93306e-01  7.59327e-01
       L  7.75438e+01 -2.74337e+00  2.37291e+00
       L  6.16112e+00  1.12621e+01 -2.57050e-02
6
# CELL(abcABC):  459.05226   459.05226   459.05226    90.00000    90.00000    90.00000  Step:          46  Bead:       0 x_centroid{angstrom}  cell{atomic_unit}
       C -2.85347e-01 -1.30816e-01 -2.02995e-02
       O  8.17023e-01  2.68017e-01 -1.10321e-01
       H -2.49130e-01  8.73941e-01 -5.94839e-01
       H -4.97216e-01 -9.00969e-01  7.67482e-01
       L  7.87702e+01 -2.63514e+00  2.38175e+00
       L  6.18606e+00  1.12805e+01 -4.68309e-02
6
# CELL(abcABC):  459.05226   459.05226   459.05226    90.00000    90.00000    90.00000  Step:          47  Bead:       0 x_centroid{angstrom}  cell{atomic_unit}
       C -2.83350e-01 -1.30449e-01 -2.25454e-02
       O  8.16253e-01  2.67940e-01 -1.08962e-01
       H -2.64303e-01  8.77871e-01 -5.98973e-01
       H -4.94368e-01 -9.08142e-01  7.76793e-01
       L  8.01216e+01 -2.47721e+00  2.40780e+00
       L  6.23348e+00  1.13010e+01 -4.48189e-02
6
# CELL(abcABC):  459.05226   459.05226   459.05226    90.00000    90.00000    90.00000  Step:          48  Bead:       0 x_centroid{angstrom}  cell{atomic_unit}
       C -2.80986e-01 -1.29972e-01 -2.48973e-02
       O  8.15061e-01  2.67806e-01 -1.07642e-01
       H -2.77671e-01  8.82057e-01 -6.02191e-01
       H -4.91049e-01 -9.16027e-01  7.87107e-01
       L  8.15786e+01 -2.24841e+00  2.39537e+00
       L  6.22620e+00  1.13207e+01 -7.11904e-02
6
# CELL(abcABC):  459.05226   459.05226   459.05226    90.00000    90.00000    90.00000  Step:          49  Bead:       0 x_centroid{angstrom}  cell{atomic_unit}
       C -2.78280e-01 -1.29508e-01 -2.72651e-02
       O  8.13542e-01  2.67700e-01 -1.06286e-01
       H -2.90759e-01  8.84774e-01 -6.04720e-01
       H -4.86953e-01 -9.22678e-01  7.96347e-01
       L  8.32365e+01 -1.99418e+00  2.35248e+00
       L  6.15185e+00  1.12512e+01 -8.66373e-02
6
# CELL(abcABC):  459.05226   459.05226   459.05226    90.00000    90.00000    90.00000  Step:          50  Bead:       0 x_centroid{angstrom}  cell{atomic_unit}
       C -2.75412e-01 -1.28849e-01 -2.95968e-02
       O  8.12053e-01  2.67480e-01 -1.05077e-01
       H -3.07593e-01  8.86984e-01 -6.05557e-01
       H -4.81552e-01 -9.29350e-01  8.05860e-01
       L  8.49882e+01 -1.70800e+00  2.25908e+00
       L  6.04527e+00  1.11327e+01 -1.46167e-01
6
# CELL(abcABC):  459.05226   459.05226   459.05226    90.00000    90.00000    90.00000  Step:          51  Bead:       0 x_centroid{angstrom}  cell{atomic_unit}
       C -2.72355e-01 -1.28224e-01 -3.20043e-02
       O  8.10755e-01  2.67331e-01 -1.03779e-01
       H -3.27977e-01  8.87555e-01 -6.05623e-01
       H -4.77939e-01 -9.35151e-01  8.14157e-01
       L  8.69016e+01 -1.37560e+00  2.09614e+00
       L  5.87615e+00  1.10591e+01 -2.50924e-01
6
# CELL(abcABC):  459.05226   459.05226   459.05226    90.00000    90.00000    90.00000  Step:          52  Bead:       0 x_centroid{angstrom}  cell{atomic_unit}
       C -2.68989e-01 -1.27508e-01 -3.43464e-02
       O  8.09740e-01  2.67035e-01 -1.02410e-01
       H -3.55498e-01  8.86750e-01 -6.04803e-01
       H -4.75379e-01 -9.38345e-01  8.19691e-01
       L  8.89267e+01 -1.01165e+00  1.90364e+00
       L  5.63226e+00  1.10135e+01 -3.80467e-01
6
# CELL(abcABC):  459.05226   459.05226   459.05226    90.00000    90.00000    90.00000  Step:          53  Bead:       0 x_centroid{angstrom}  cell{atomic_unit}
       C -2.65461e-01 -1.26637e-01 -3.68688e-02
       O  8.08969e-01  2.66490e-01 -1.00811e-01
       H -3.87817e-01  8.85799e-01 -6.03282e-01
       H -4.73843e-01 -9.39304e-01  8.23002e-01
       L  9.11004e+01 -6.28888e-01  1.66778e+00
       L  5.24984e+00  1.09738e+01 -4.34282e-01
6
# CELL(abcABC):  459.05226   459.05226   459.05226    90.00000    90.00000    90.00000  Step:          54  Bead:       0 x_centroid{angstrom}  cell{atomic_unit}
       C -2.61754e-01 -1.25311e-01 -3.93000e-02
       O  8.08527e-01  2.65540e-01 -9.93642e-02
       H -4.26234e-01  8.83999e-01 -6.00727e-01
       H -4.73558e-01 -9.38443e-01  8.26593e-01
       L  9.33487e+01 -2.79226e-01  1.44138e+00
       L  4.80200e+00  1.10087e+01 -4.58287e-01
6
# CELL(abcABC):  459.05226   459.05226   459.05226    90.00000    90.00000    90.00000  Step:          55  Bead:       0 x_centroid{angstrom}  cell{atomic_unit}
       C -2.57689e-01 -1.23680e-01 -4.19866e-02
       O  8.08156e-01  2.64274e-01 -9.78296e-02
       H -4.70061e-01  8.82018e-01 -5.96897e-01
       H -4.73280e-01 -9.36072e-01  8.30614e-01
       L  9.57012e+01  6.12086e-02  1.17633e+00
       L  4.28367e+00  1.11522e+01 -5.53881e-01
6
# CELL(abcABC):  459.05226   459.05226   459.05226    90.00000    90.00000    90.00000  Step:          56  Bead:       0 x_centroid{angstrom}  cell{atomic_unit}
       C -2.53350e-01 -1.21351e-01 -4.47062e-02
       O  8.07826e-01  2.62581e-01 -9.63465e-02
       H -5.18879e-01  8.77328e-01 -5.92128e-01
       H -4.71969e-01 -9.32550e-01  8.34902e-01
       L  9.81644e+01  3.90877e-01  9.34010e-01
       L  3.71641e+00  1.13630e+01 -6.64579e-01
6
# CELL(abcABC):  459.05226   459.05226   459.05226    90.00000    90.00000    90.00000  Step:          57  Bead:       0 x_centroid{angstrom}  cell{atomic_unit}
       C -2.49115e-01 -1.18218e-01 -4.77772e-02
       O  8.07957e-01  2.60346e-01 -9.46553e-02
       H -5.73233e-01  8.69818e-01 -5.86033e-01
       H -4.71194e-01 -9.27300e-01  8.38771e-01
       L  1.00731e+02  7.34569e-01  6.81473e-01
       L  3.07219e+00  1.17646e+01 -8.08123e-01
6
# CELL(abcABC):  459.05226   459.05226   459.05226    90.00000    90.00000    90.00000  Step:          58  Bead:       0 x_centroid{angstrom}  cell{atomic_unit}
       C -2.44986e-01 -1.14217e-01 -5.12411e-02
       O  8.08572e-01  2.57619e-01 -9.28077e-02
       H -6.32406e-01  8.58970e-01 -5.78376e-01
       H -4.72061e-01 -9.21277e-01  8.43226e-01
       L  1.03358e+02  1.03362e+00  4.95233e-01
       L  2.41915e+00  1.22827e+01 -9.22271e-01
6
# CELL(abcABC):  459.05226   459.05226   459.05226    90.00000    90.00000    90.00000  Step:          59  Bead:       0 x_centroid{angstrom}  cell{atomic_unit}
       C -2.40879e-01 -1.09409e-01 -5.48307e-02
       O  8.09644e-01  2.54468e-01 -9.09495e-02
       H -6.96603e-01  8.43074e-01 -5.67823e-01
       H -4.74935e-01 -9.13217e-01  8.46124e-01
       L  1.06035e+02  1.41546e+00  3.14948e-01
       L  1.77221e+00  1.29420e+01 -1.05675e+00
6
# CELL(abcABC):  459.05226   459.05226   459.05226    90.00000    90.00000    90.00000  Step:          60  Bead:       0 x_centroid{angstrom}  cell{atomic_unit}
       C -2.37366e-01 -1.03385e-01 -5.89431e-02
       O  8.11528e-01  2.50732e-01 -8.88626e-02
       H -7.64558e-01  8.21255e-01 -5.54093e-01
       H -4.79845e-01 -9.04538e-01  8.48383e-01
       L  1.08735e+02  1.80866e+00  2.11824e-01
       L  1.10079e+00  1.37364e+01 -1.16165e+00
6
# CELL(abcABC):  459.05226   459.05226   459.05226    90.00000    90.00000    90.00000  Step:          61  Bead:       0 x_centroid{angstrom}  cell{atomic_unit}
       C -2.35082e-01 -9.59452e-02 -6.32488e-02
       O  8.14614e-01  2.46357e-01 -8.67015e-02
       H -8.35183e-01  7.91805e-01 -5.37091e-01
       H -4.86521e-01 -8.94989e-01  8.48507e-01
       L  1.11433e+02  2.18464e+00  8.58683e-02
       L  4.11668e-01  1.46240e+01 -1.25621e+00
6
# CELL(abcABC):  459.05226   459.05226   459.05226    90.00000    90.00000    90.00000  Step:          62  Bead:       0 x_centroid{angstrom}  cell{atomic_unit}
       C -2.34179e-01 -8.75837e-02 -6.75584e-02
       O  8.18931e-01  2.41744e-01 -8.44975e-02
       H -9.07322e-01  7.53993e-01 -5.17300e-01
       H -4.94747e-01 -8.84359e-01  8.45220e-01
       L  1.14123e+02  2.60099e+00 -9.04944e-02
       L -2.87404e-01  1.56372e+01 -1.33266e+00
6
# CELL(abcABC):  459.05226   459.05226   459.05226    90.00000    90.00000    90.00000  Step:          63  Bead:       0 x_centroid{angstrom}  cell{atomic_unit}
       C -2.34747e-01 -7.84254e-02 -7.18273e-02
       O  8.24452e-01  2.36880e-01 -8.22823e-02
       H -9.79306e-01  7.07856e-01 -4.95695e-01
       H -5.04723e-01 -8.70907e-01  8.39455e-01
       L  1.16834e+02  2.95521e+00 -2.69219e-01
       L -9.83476e-01  1.66897e+01 -1.40001e+00
6
# CELL(abcABC):  459.05226   459.05226   459.05226    90.00000    90.00000    90.00000  Step:          64  Bead:       0 x_centroid{angstrom}  cell{atomic_unit}
       C -2.37004e-01 -6.91538e-02 -7.57604e-02
       O  8.31339e-01  2.32227e-01 -8.01405e-02
       H -1.05005e+00  6.55269e-01 -4.72826e-01
       H -5.17505e-01 -8.55678e-01  8.29597e-01
       L  1.19545e+02  3.22297e+00 -5.20909e-01
       L -1.67267e+00  1.77801e+01 -1.40558e+00
6
# CELL(abcABC):  459.05226   459.05226   459.05226    90.00000    90.00000    90.00000  Step:          65  Bead:       0 x_centroid{angstrom}  cell{atomic_unit}
       C -2.40821e-01 -5.97135e-02 -7.93001e-02
       O  8.39422e-01  2.27708e-01 -7.79590e-02
       H -1.11939e+00  5.97379e-01 -4.50284e-01
       H -5.32125e-01 -8.39265e-01  8.14756e-01
       L  1.22272e+02  3.44576e+00 -7.95091e-01
       L -2.31497e+00  1.88662e+01 -1.40891e+00
6
# CELL(abcABC):  459.05226   459.05226   459.05226    90.00000    90.00000    90.00000  Step:          66  Bead:       0 x_centroid{angstrom}  cell{atomic_unit}
       C -2.45653e-01 -5.04880e-02 -8.16842e-02