6
# CELL(abcABC):  459.05226   459.05226   459.05226    90.00000    90.00000    90.00000  Step:           0  Bead:       0 x_centroid{angstrom}  cell{atomic_unit}
       C -3.39887e-01 -1.13437e-01  8.06659e-02
       O  8.43483e-01  2.62672e-01 -1.81512e-01
       H -7.35799e-02  8.16467e-01 -6.61432e-01
       H -4.30016e-01 -9.65701e-01  7.62278e-01
       L  6.13458e+01  0.00000e+00  0.00000e+00
       L  0.00000e+00  8.59064e+00  0.00000e+00
6
# CELL(abcABC):  459.05226   459.05226   459.05226    90.00000    90.00000    90.00000  Step:           1  Bead:       0 x_centroid{angstrom}  cell{atomic_unit}
       C -3.37688e-01 -1.13334e-01  8.16710e-02
       O  8.41739e-01  2.62228e-01 -1.82953e-01
       H -7.87463e-02  8.28959e-01 -6.54997e-01
       H -4.23684e-01 -9.71954e-01  7.66857e-01
       L  6.16746e+01 -4.31531e-01  3.79779e-02
       L  2.50637e-01  8.22676e+00 -2.68917e-01
6
# CELL(abcABC):  459.05226   459.05226   459.05226    90.00000    90.00000    90.00000  Step:           2  Bead:       0 x_centroid{angstrom}  cell{atomic_unit}
       C -3.35419e-01 -1.13303e-01  8.23971e-02
       O  8.40095e-01  2.61890e-01 -1.84284e-01
       H -8.60547e-02  8.39420e-01 -6.47260e-01
       H -4.17614e-01 -9.76984e-01  7.71719e-01
       L  6.19733e+01 -8.26076e-01  7.16505e-02
       L  5.13674e-01  7.81625e+00 -5.20139e-01
6
# CELL(abcABC):  459.05226   459.05226   459.05226    90.00000    90.00000    90.00000  Step:           3  Bead:       0 x_centroid{angstrom}  cell{atomic_unit}
       C -3.33447e-01 -1.13132e-01  8.33292e-02
       O  8.38716e-01  2.61502e-01 -1.85804e-01
       H -9.51090e-02  8.47763e-01 -6.38460e-01
       H -4.10483e-01 -9.80737e-01  7.76022e-01
       L  6.22656e+01 -1.23814e+00  1.54917e-01
       L  7.78532e-01  7.39035e+00 -7.65354e-01
6
# CELL(abcABC):  459.05226   459.05226   459.05226    90.00000    90.00000    90.00000  Step:           4  Bead:       0 x_centroid{angstrom}  cell{atomic_unit}
       C -3.31671e-01 -1.13010e-01  8.44033e-02
       O  8.37458e-01  2.61257e-01 -1.87325e-01
       H -1.04101e-01  8.53272e-01 -6.28126e-01
       H -4.02977e-01 -9.83344e-01  7.77112e-01
       L  6.25453e+01 -1.62499e+00  2.42135e-01
       L  1.04576e+00  6.89544e+00 -9.97513e-01
6
# CELL(abcABC):  459.05226   459.05226   459.05226    90.00000    90.00000    90.00000  Step:           5  Bead:       0 x_centroid{angstrom}  cell{atomic_unit}
       C -3.29702e-01 -1.12887e-01  8.54236e-02
       O  8.36168e-01  2.61152e-01 -1.88748e-01
       H -1.14305e-01  8.55414e-01 -6.15916e-01
       H -3.96039e-01 -9.84775e-01  7.75401e-01
       L  6.28243e+01 -1.97204e+00  3.06635e-01
       L  1.27552e+00  6.32838e+00 -1.19621e+00
6
# CELL(abcABC):  459.05226   459.05226   459.05226    90.00000    90.00000    90.00000  Step:           6  Bead:       0 x_centroid{angstrom}  cell{atomic_unit}
       C -3.27453e-01 -1.12650e-01  8.66367e-02
       O  8.34532e-01  2.61060e-01 -1.90347e-01
       H -1.22583e-01  8.55513e-01 -6.02462e-01
       H -3.88846e-01 -9.85704e-01  7.72952e-01
       L  6.31437e+01 -2.37579e+00  3.30763e-01
       L  1.43336e+00  5.75448e+00 -1.35278e+00
6
# CELL(abcABC):  459.05226   459.05226   459.05226    90.00000    90.00000    90.00000  Step:           7  Bead:       0 x_centroid{angstrom}  cell{atomic_unit}
       C -3.25352e-01 -1.12849e-01  8.74729e-02
       O  8.32965e-01  2.61391e-01 -1.91637e-01
       H -1.29696e-01  8.54546e-01 -5.88238e-01
       H -3.82162e-01 -9.87103e-01  7.69373e-01
       L  6.35027e+01 -2.72490e+00  3.24614e-01
       L  1.57649e+00  5.15125e+00 -1.59187e+00
6
# CELL(abcABC):  459.05226   459.05226   459.05226    90.00000    90.00000    90.00000  Step:           8  Bead:       0 x_centroid{angstrom}  cell{atomic_unit}
       C -3.23052e-01 -1.12868e-01  8.82315e-02
       O  8.31106e-01  2.61448e-01 -1.92851e-01
       H -1.33899e-01  8.55278e-01 -5.74052e-01
       H -3.76155e-01 -9.88089e-01  7.65484e-01
       L  6.39033e+01 -2.99899e+00  3.48262e-01
       L  1.68197e+00  4.62338e+00 -1.75223e+00
6
# CELL(abcABC):  459.05226   459.05226   459.05226    90.00000    90.00000    90.00000  Step:           9  Bead:       0 x_centroid{angstrom}  cell{atomic_unit}
       C -3.20506e-01 -1.13087e-01  8.91803e-02
       O  8.28959e-01  2.61574e-01 -1.94152e-01
       H -1.35242e-01  8.57965e-01 -5.60665e-01
       H -3.71341e-01 -9.89742e-01  7.61553e-01
       L  6.43404e+01 -3.22074e+00  3.30425e-01
       L  1.76451e+00  4.08260e+00 -1.93570e+00
6
# CELL(abcABC):  459.05226   459.05226   459.05226    90.00000    90.00000    90.00000  Step:          10  Bead:       0 x_centroid{angstrom}  cell{atomic_unit}
       C -3.18144e-01 -1.13295e-01  9.02471e-02
       O  8.26853e-01  2.61552e-01 -1.95490e-01
       H -1.35415e-01  8.62921e-01 -5.48423e-01
       H -3.66164e-01 -9.91496e-01  7.57938e-01
       L  6.48103e+01 -3.43112e+00  3.29817e-01
       L  1.79866e+00  3.59484e+00 -2.12242e+00
6
# CELL(abcABC):  459.05226   459.05226   459.05226    90.00000    90.00000    90.00000  Step:          11  Bead:       0 x_centroid{angstrom}  cell{atomic_unit}
       C -3.16083e-01 -1.13525e-01  9.13351e-02
       O  8.25065e-01  2.61407e-01 -1.96824e-01
       H -1.37609e-01  8.69444e-01 -5.36866e-01
       H -3.60424e-01 -9.92580e-01  7.54721e-01
       L  6.52493e+01 -3.66845e+00  2.96096e-01
       L  1.86238e+00  3.11869e+00 -2.32448e+00
6
# CELL(abcABC):  459.05226   459.05226   459.05226    90.00000    90.00000    90.00000  Step:          12  Bead:       0 x_centroid{angstrom}  cell{atomic_unit}
       C -3.14135e-01 -1.14078e-01  9.26202e-02
       O  8.23548e-01  2.61350e-01 -1.98260e-01
       H -1.44254e-01  8.78390e-01 -5.25974e-01
       H -3.53233e-01 -9.93693e-01  7.51420e-01
       L  6.57264e+01 -3.89915e+00  2.49874e-01
       L  1.98966e+00  2.70685e+00 -2.47868e+00
6
# CELL(abcABC):  459.05226   459.05226   459.05226    90.00000    90.00000    90.00000  Step:          13  Bead:       0 x_centroid{angstrom}  cell{atomic_unit}
       C -3.12080e-01 -1.14462e-01  9.39695e-02
       O  8.22225e-01  2.61079e-01 -1.99682e-01
       H -1.54013e-01  8.88895e-01 -5.16350e-01
       H -3.47280e-01 -9.94992e-01  7.48390e-01
       L  6.62128e+01 -4.08350e+00  2.50466e-01
       L  2.09036e+00  2.30747e+00 -2.65744e+00
6
# CELL(abcABC):  459.05226   459.05226   459.05226    90.00000    90.00000    90.00000  Step:          14  Bead:       0 x_centroid{angstrom}  cell{atomic_unit}
       C -3.10373e-01 -1.14911e-01  9.55034e-02
       O  8.21410e-01  2.60797e-01 -2.01272e-01
       H -1.66636e-01  9.01800e-01 -5.06468e-01
       H -3.42382e-01 -9.97790e-01  7.45555e-01
       L  6.67471e+01 -4.22685e+00  2.81406e-01
       L  2.16136e+00  1.93689e+00 -2.85065e+00
6
# CELL(abcABC):  459.05226   459.05226   459.05226    90.00000    90.00000    90.00000  Step:          15  Bead:       0 x_centroid{angstrom}  cell{atomic_unit}
       C -3.08708e-01 -1.15429e-01  9.70878e-02
       O  8.20627e-01  2.60533e-01 -2.03001e-01
       H -1.78753e-01  9.15463e-01 -4.94619e-01
       H -3.38032e-01 -1.00082e+00  7.42316e-01
       L  6.73335e+01 -4.32355e+00  3.70821e-01
       L  2.21977e+00  1.51411e+00 -3.02464e+00
6
# CELL(abcABC):  459.05226   459.05226   459.05226    90.00000    90.00000    90.00000  Step:          16  Bead:       0 x_centroid{angstrom}  cell{atomic_unit}
       C -3.07151e-01 -1.15860e-01  9.87607e-02
       O  8.19945e-01  2.60193e-01 -2.05004e-01
       H -1.90563e-01  9.28902e-01 -4.81587e-01
       H -3.34248e-01 -1.00347e+00  7.41192e-01
       L  6.79183e+01 -4.35708e+00  4.35179e-01
       L  2.18765e+00  1.09919e+00 -3.15822e+00
6
# CELL(abcABC):  459.05226   459.05226   459.05226    90.00000    90.00000    90.00000  Step:          17  Bead:       0 x_centroid{angstrom}  cell{atomic_unit}
       C -3.05667e-01 -1.16320e-01  1.00053e-01
       O  8.19085e-01  2.59853e-01 -2.06793e-01
       H -1.99610e-01  9.44135e-01 -4.68543e-01
       H -3.29545e-01 -1.00766e+00  7.41161e-01
       L  6.85865e+01 -4.33794e+00  4.61712e-01
       L  2.08662e+00  7.70716e-01 -3.23216e+00
6
# CELL(abcABC):  459.05226   459.05226   459.05226    90.00000    90.00000    90.00000  Step:          18  Bead:       0 x_centroid{angstrom}  cell{atomic_unit}
       C -3.03753e-01 -1.16763e-01  1.01307e-01
       O  8.17564e-01  2.59654e-01 -2.08624e-01
       H -2.04509e-01  9.58264e-01 -4.55700e-01
       H -3.23623e-01 -1.01323e+00  7.42462e-01
       L  6.93320e+01 -4.25561e+00  4.65403e-01
       L  1.90759e+00  4.60074e-01 -3.27831e+00
6
# CELL(abcABC):  459.05226   459.05226   459.05226    90.00000    90.00000    90.00000  Step:          19  Bead:       0 x_centroid{angstrom}  cell{atomic_unit}
       C -3.01817e-01 -1.17109e-01  1.02298e-01
       O  8.15967e-01  2.59545e-01 -2.10391e-01
       H -2.08429e-01  9.70763e-01 -4.41281e-01
       H -3.17749e-01 -1.01974e+00  7.44287e-01
       L  7.01218e+01 -4.18622e+00  4.63051e-01
       L  1.70816e+00  1.52461e-01 -3.25748e+00
6
# CELL(abcABC):  459.05226   459.05226   459.05226    90.00000    90.00000    90.00000  Step:          20  Bead:       0 x_centroid{angstrom}  cell{atomic_unit}
       C -2.99899e-01 -1.17368e-01  1.03180e-01
       O  8.14390e-01  2.59473e-01 -2.12176e-01
       H -2.11877e-01  9.80419e-01 -4.26379e-01
       H -3.12461e-01 -1.02507e+00  7.47191e-01
       L  7.09957e+01 -4.05775e+00  4.33571e-01
       L  1.48370e+00 -1.76800e-01 -3.20219e+00
6
# CELL(abcABC):  459.05226   459.05226   459.05226    90.00000    90.00000    90.00000  Step:          21  Bead:       0 x_centroid{angstrom}  cell{atomic_unit}
       C -2.97954e-01 -1.17233e-01  1.03909e-01
       O  8.13018e-01  2.59387e-01 -2.13928e-01
       H -2.17712e-01  9.85317e-01 -4.09510e-01
       H -3.08405e-01 -1.03011e+00  7.49418e-01
       L  7.19197e+01 -3.87210e+00  3.95335e-01
       L  1.23135e+00 -5.36462e-01 -3.12241e+00
6
# CELL(abcABC):  459.05226   459.05226   459.05226    90.00000    90.00000    90.00000  Step:          22  Bead:       0 x_centroid{angstrom}  cell{atomic_unit}
       C -2.96046e-01 -1.16739e-01  1.04710e-01
       O  8.11949e-01  2.59230e-01 -2.15771e-01
       H -2.26798e-01  9.86560e-01 -3.90238e-01
       H -3.05459e-01 -1.03468e+00  7.49830e-01
       L  7.28485e+01 -3.62000e+00  3.73996e-01
       L  1.00447e+00 -8.83754e-01 -3.05536e+00
6
# CELL(abcABC):  459.05226   459.05226   459.05226    90.00000    90.00000    90.00000  Step:          23  Bead:       0 x_centroid{angstrom}  cell{atomic_unit}
       C -2.94003e-01 -1.16189e-01  1.05462e-01
       O  8.10997e-01  2.59064e-01 -2.17688e-01
       H -2.39096e-01  9.85676e-01 -3.69410e-01
       H -3.02800e-01 -1.03767e+00  7.50418e-01
       L  7.38334e+01 -3.36482e+00  3.42147e-01
       L  7.74680e-01 -1.24649e+00 -2.94428e+00
6
# CELL(abcABC):  459.05226   459.05226   459.05226    90.00000    90.00000    90.00000  Step:          24  Bead:       0 x_centroid{angstrom}  cell{atomic_unit}
       C -2.92115e-01 -1.15484e-01  1.05920e-01
       O  8.10117e-01  2.58840e-01 -2.19534e-01
       H -2.50948e-01  9.84148e-01 -3.46804e-01
       H -2.99980e-01 -1.04097e+00  7.51607e-01
       L  7.49317e+01 -3.06343e+00  3.13887e-01
       L  5.66551e-01 -1.58988e+00 -2.81219e+00
6
# CELL(abcABC):  459.05226   459.05226   459.05226    90.00000    90.00000    90.00000  Step:          25  Bead:       0 x_centroid{angstrom}  cell{atomic_unit}
       C -2.90214e-01 -1.14617e-01  1.06421e-01
       O  8.09091e-01  2.58472e-01 -2.21552e-01
       H -2.61255e-01  9.83751e-01 -3.23912e-01
       H -2.96543e-01 -1.04508e+00  7.54707e-01
       L  7.60818e+01 -2.75176e+00  2.92559e-01
       L  3.62764e-01 -1.84437e+00 -2.65990e+00
6
# CELL(abcABC):  459.05226   459.05226   459.05226    90.00000    90.00000    90.00000  Step:          26  Bead:       0 x_centroid{angstrom}  cell{atomic_unit}
       C -2.87915e-01 -1.13604e-01  1.06772e-01
       O  8.07515e-01  2.57861e-01 -2.23654e-01
       H -2.69059e-01  9.84507e-01 -3.00708e-01
       H -2.91615e-01 -1.04827e+00  7.60610e-01
       L  7.72647e+01 -2.43241e+00  2.61086e-01
       L  1.05102e-01 -2.07088e+00 -2.47753e+00
6
# CELL(abcABC):  459.05226   459.05226   459.05226    90.00000    90.00000    90.00000  Step:          27  Bead:       0 x_centroid{angstrom}  cell{atomic_unit}
       C -2.85602e-01 -1.12809e-01  1.06828e-01
       O  8.05849e-01  2.57151e-01 -2.25631e-01
       H -2.76830e-01  9.88365e-01 -2.76989e-01
       H -2.85473e-01 -1.05044e+00  7.67521e-01
       L  7.85284e+01 -2.03108e+00  2.29367e-01
       L -2.26246e-01 -2.26102e+00 -2.29003e+00
6
# CELL(abcABC):  459.05226   459.05226   459.05226    90.00000    90.00000    90.00000  Step:          28  Bead:       0 x_centroid{angstrom}  cell{atomic_unit}
       C -2.83206e-01 -1.11837e-01  1.06750e-01
       O  8.04085e-01  2.56027e-01 -2.27558e-01
       H -2.84289e-01  9.96105e-01 -2.52445e-01
       H -2.79114e-01 -1.05209e+00  7.74389e-01
       L  7.98406e+01 -1.67006e+00  1.91092e-01
       L -5.26143e-01 -2.33478e+00 -2.05278e+00
6
# CELL(abcABC):  459.05226   459.05226   459.05226    90.00000    90.00000    90.00000  Step:          29  Bead:       0 x_centroid{angstrom}  cell{atomic_unit}
       C -2.80545e-01 -1.10859e-01  1.06629e-01
       O  8.02156e-01  2.54658e-01 -2.29441e-01
       H -2.92674e-01  1.00693e+00 -2.28358e-01
       H -2.72371e-01 -1.05305e+00  7.81538e-01
       L  8.11814e+01 -1.25919e+00  1.53558e-01
       L -8.47306e-01 -2.34089e+00 -1.83689e+00
6
# CELL(abcABC):  459.05226   459.05226   459.05226    90.00000    90.00000    90.00000  Step:          30  Bead:       0 x_centroid{angstrom}  cell{atomic_unit}
       C -2.77565e-01 -1.09777e-01  1.06320e-01
       O  8.00191e-01  2.52984e-01 -2.31289e-01
       H -3.03846e-01  1.01937e+00 -2.03029e-01
       H -2.66100e-01 -1.05211e+00  7.89102e-01
       L  8.25406e+01 -8.19932e-01  1.48839e-01
       L -1.15619e+00 -2.23799e+00 -1.62992e+00
6
# CELL(abcABC):  459.05226   459.05226   459.05226    90.00000    90.00000    90.00000  Step:          31  Bead:       0 x_centroid{angstrom}  cell{atomic_unit}
       C -2.74873e-01 -1.08623e-01  1.05810e-01
       O  7.98783e-01  2.51062e-01 -2.33118e-01
       H -3.19593e-01  1.03340e+00 -1.75816e-01
       H -2.60656e-01 -1.04972e+00  7.96903e-01
       L  8.38835e+01 -3.44810e-01  1.05844e-01
       L -1.42280e+00 -2.10758e+00 -1.39597e+00
6
# CELL(abcABC):  459.05226   459.05226   459.05226    90.00000    90.00000    90.00000  Step:          32  Bead:       0 x_centroid{angstrom}  cell{atomic_unit}
       C -2.72105e-01 -1.07214e-01  1.05431e-01
       O  7.97606e-01  2.48889e-01 -2.35070e-01
       H -3.39187e-01  1.04577e+00 -1.47740e-01
       H -2.55998e-01 -1.04475e+00  8.04191e-01
       L  8.52579e+01  9.52152e-02  1.15288e-01
       L -1.63907e+00 -1.86739e+00 -1.15453e+00
6
# CELL(abcABC):  459.05226   459.05226   459.05226    90.00000    90.00000    90.00000  Step:          33  Bead:       0 x_centroid{angstrom}  cell{atomic_unit}
       C -2.69151e-01 -1.05225e-01  1.05123e-01
       O  7.96679e-01  2.46230e-01 -2.37160e-01
       H -3.62572e-01  1.05900e+00 -1.18677e-01
       H -2.53788e-01 -1.03991e+00  8.11828e-01
       L  8.67009e+01  6.22458e-01  1.47829e-01
       L -1.82488e+00 -1.57456e+00 -9.02784e-01
6
# CELL(abcABC):  459.05226   459.05226   459.05226    90.00000    90.00000    90.00000  Step:          34  Bead:       0 x_centroid{angstrom}  cell{atomic_unit}
       C -2.66314e-01 -1.02965e-01  1.05073e-01
       O  7.96067e-01  2.43324e-01 -2.39632e-01
       H -3.89022e-01  1.07123e+00 -8.77683e-02
       H -2.52191e-01 -1.03343e+00  8.20588e-01
       L  8.82172e+01  1.13879e+00  2.01860e-01
       L -1.94337e+00 -1.19899e+00 -6.75283e-01
6
# CELL(abcABC):  459.05226   459.05226   459.05226    90.00000    90.00000    90.00000  Step:          35  Bead:       0 x_centroid{angstrom}  cell{atomic_unit}
       C -2.63494e-01 -1.00222e-01  1.05371e-01
       O  7.95621e-01  2.39956e-01 -2.42506e-01
       H -4.18468e-01  1.08241e+00 -5.58278e-02
       H -2.50015e-01 -1.02441e+00  8.30556e-01
       L  8.97717e+01  1.72426e+00  2.86552e-01
       L -2.10237e+00 -7.47891e-01 -4.71514e-01
6
# CELL(abcABC):  459.05226   459.05226   459.05226    90.00000    90.00000    90.00000  Step:          36  Bead:       0 x_centroid{angstrom}  cell{atomic_unit}
       C -2.61171e-01 -9.66662e-02  1.05429e-01
       O  7.95952e-01  2.36191e-01 -2.45471e-01
       H -4.52278e-01  1.09036e+00 -2.14475e-02
       H -2.49905e-01 -1.01562e+00  8.42407e-01
       L  9.13738e+01  2.27434e+00  3.73445e-01
       L -2.30240e+00 -9.39326e-02 -2.83747e-01
6
# CELL(abcABC):  459.05226   459.05226   459.05226    90.00000    90.00000    90.00000  Step:          37  Bead:       0 x_centroid{angstrom}  cell{atomic_unit}
       C -2.59307e-01 -9.19681e-02  1.05261e-01
       O  7.96697e-01  2.31903e-01 -2.48499e-01
       H -4.88350e-01  1.09382e+00  1.41851e-02
       H -2.48653e-01 -1.00768e+00  8.56633e-01
       L  9.29812e+01  2.79808e+00  5.14218e-01
       L -2.49090e+00  6.37846e-01 -4.35228e-02
6
# CELL(abcABC):  459.05226   459.05226   459.05226    90.00000    90.00000    90.00000  Step:          38  Bead:       0 x_centroid{angstrom}  cell{atomic_unit}
       C -2.57679e-01 -8.58699e-02  1.04751e-01
       O  7.97561e-01  2.26956e-01 -2.51585e-01
       H -5.25866e-01  1.09136e+00  5.21913e-02
       H -2.45014e-01 -1.00011e+00  8.73480e-01
       L  9.45716e+01  3.28974e+00  6.50266e-01
       L -2.67547e+00  1.54061e+00  2.04202e-01
6
# CELL(abcABC):  459.05226   459.05226   459.05226    90.00000    90.00000    90.00000  Step:          39  Bead:       0 x_centroid{angstrom}  cell{atomic_unit}
       C -2.56266e-01 -7.82394e-02  1.04361e-01
       O  7.98840e-01  2.21360e-01 -2.54938e-01
       H -5.66712e-01  1.08114e+00  9.07975e-02
       H -2.42102e-01 -9.92801e-01  8.92557e-01
       L  9.61726e+01  3.76195e+00  7.62885e-01
       L -2.83521e+00  2.56329e+00  4.10220e-01
6
# CELL(abcABC):  459.05226   459.05226   459.05226    90.00000    90.00000    90.00000  Step:          40  Bead:       0 x_centroid{angstrom}  cell{atomic_unit}
       C -2.54657e-01 -6.92081e-02  1.03889e-01
       O  8.00096e-01  2.15054e-01 -2.58308e-01
       H -6.09545e-01  1.06391e+00  1.31048e-01
       H -2.39160e-01 -9.83995e-01  9.11290e-01
       L  9.78339e+01  4.23115e+00  8.84411e-01
       L -3.04791e+00  3.73357e+00  5.47665e-01
6
# CELL(abcABC):  459.05226   459.05226   459.05226    90.00000    90.00000    90.00000  Step:          41  Bead:       0 x_centroid{angstrom}  cell{atomic_unit}
       C -2.53190e-01 -5.88290e-02  1.03453e-01
       O  8.01723e-01  2.08137e-01 -2.61760e-01
       H -6.55543e-01  1.03955e+00  1.72325e-01
       H -2.37283e-01 -9.74477e-01  9.29915e-01
       L  9.95412e+01  4.67581e+00  9.37264e-01
       L -3.24443e+00  5.06495e+00  6.48816e-01
6
# CELL(abcABC):  459.05226   459.05226   459.05226    90.00000    90.00000    90.00000  Step:          42  Bead:       0 x_centroid{angstrom}  cell{atomic_unit}
       C -2.51760e-01 -4.75484e-02  1.03098e-01
       O  8.03760e-01  2.00854e-01 -2.65360e-01
       H -7.04823e-01  1.00726e+00  2.15419e-01
       H -2.38235e-01 -9.62028e-01  9.48170e-01
       L  1.01299e+02  5.11472e+00  9.74691e-01
       L -3.42477e+00  6.50070e+00  6.75195e-01
6
# CELL(abcABC):  459.05226   459.05226   459.05226    90.00000    90.00000    90.00000  Step:          43  Bead:       0 x_centroid{angstrom}  cell{atomic_unit}
       C -2.50006e-01 -3.55400e-02  1.03234e-01
       O  8.06042e-01  1.93116e-01 -2.69311e-01
       H -7.59687e-01  9.69736e-01  2.59149e-01
       H -2.41423e-01 -9.45790e-01  9.65511e-01
       L  1.03121e+02  5.48194e+00  9.49147e-01
       L -3.53681e+00  8.00608e+00  7.40242e-01
6
# CELL(abcABC):  459.05226   459.05226   459.05226    90.00000    90.00000    90.00000  Step:          44  Bead:       0 x_centroid{angstrom}  cell{atomic_unit}
       C -2.47974e-01 -2.34976e-02  1.04409e-01
       O  8.08519e-01  1.85298e-01 -2.73672e-01
       H -8.17575e-01  9.30148e-01  3.01552e-01
       H -2.48073e-01 -9.26594e-01  9.78312e-01
       L  1.04985e+02  5.77050e+00  9.41248e-01
       L -3.55424e+00  9.54463e+00  8.01645e-01
6
# CELL(abcABC):  459.05226   459.05226   459.05226    90.00000    90.00000    90.00000  Step:          45  Bead:       0 x_centroid{angstrom}  cell{atomic_unit}
       C -2.45272e-01 -1.20468e-02  1.06630e-01
       O  8.10873e-01  1.77636e-01 -2.78275e-01
       H -8.78237e-01  8.90391e-01  3.43014e-01
       H -2.58050e-01 -9.02589e-01  9.83400e-01
       L  1.06932e+02  5.95005e+00  9.56523e-01
       L -3.55086e+00  1.10862e+01  8.52220e-01
6
# CELL(abcABC):  459.05226   459.05226   459.05226    90.00000    90.00000    90.00000  Step:          46  Bead:       0 x_centroid{angstrom}  cell{atomic_unit}
       C -2.41763e-01 -1.27941e-03  1.10108e-01
       O  8.12969e-01  1.70158e-01 -2.83158e-01
       H -9.41618e-01  8.51478e-01  3.83243e-01
       H -2.70876e-01 -8.74153e-01  9.79228e-01
       L  1.08980e+02  6.03158e+00  9.34275e-01
       L -3.50631e+00  1.26018e+01  8.95456e-01
6
# CELL(abcABC):  459.05226   459.05226   459.05226    90.00000    90.00000    90.00000  Step:          47  Bead:       0 x_centroid{angstrom}  cell{atomic_unit}
       C -2.37512e-01  8.14211e-03  1.15008e-01
       O  8.14803e-01  1.63062e-01 -2.88333e-01
       H -1.00595e+00  8.16964e-01  4.20157e-01
       H -2.87477e-01 -8.40020e-01  9.66069e-01
       L  1.11062e+02  6.01296e+00  9.29704e-01
       L -3.45998e+00  1.39988e+01  9.08721e-01
6
# CELL(abcABC):  459.05226   459.05226   459.05226    90.00000    90.00000    90.00000  Step:          48  Bead:       0 x_centroid{angstrom}  cell{atomic_unit}
       C -2.32747e-01  1.60277e-02  1.21303e-01
       O  8.16522e-01  1.56631e-01 -2.93737e-01
       H -1.07025e+00  7.86332e-01  4.53968e-01
       H -3.08434e-01 -8.01914e-01  9.43054e-01
       L  1.13202e+02  5.97509e+00  9.07407e-01
       L -3.41735e+00  1.52124e+01  8.80659e-01
6
# CELL(abcABC):  459.05226   459.05226   459.05226    90.00000    90.00000    90.00000  Step:          49  Bead:       0 x_centroid{angstrom}  cell{atomic_unit}
       C -2.27917e-01  2.25838e-02  1.29272e-01
       O  8.18269e-01  1.50779e-01 -2.99650e-01
       H -1.13289e+00  7.59362e-01  4.83363e-01
       H -3.32317e-01 -7.60733e-01  9.12588e-01
       L  1.15403e+02  5.87763e+00  8.84932e-01
       L -3.34905e+00  1.63399e+01  8.35104e-01
6
# CELL(abcABC):  459.05226   459.05226   459.05226    90.00000    90.00000    90.00000  Step:          50  Bead:       0 x_centroid{angstrom}  cell{atomic_unit}
       C -2.23104e-01  2.84401e-02  1.38879e-01
       O  8.20034e-01  1.45460e-01 -3.06238e-01
       H -1.19285e+00  7.33358e-01  5.08373e-01
       H -3.59004e-01 -7.20639e-01  8.77704e-01
       L  1.17627e+02  5.71788e+00  8.75181e-01
       L -3.22609e+00  1.75011e+01  7.92166e-01
6
# CELL(abcABC):  459.05226   459.05226   459.05226    90.00000    90.00000    90.00000  Step:          51  Bead:       0 x_centroid{angstrom}  cell{atomic_unit}
       C -2.19172e-01  3.43572e-02  1.49765e-01
       O  8.22021e-01  1.40376e-01 -3.13338e-01
       H -1.24564e+00  7.07776e-01  5.26018e-01
       H -3.85869e-01 -6.85392e-01  8.43076e-01
       L  1.19826e+02  5.53833e+00  8.53695e-01
       L -3.07515e+00  1.86640e+01  7.49932e-01
6
# CELL(abcABC):  459.05226   459.05226   459.05226    90.00000    90.00000    90.00000  Step:          52  Bead:       0 x_centroid{angstrom}  cell{atomic_unit}
       C -2.17094e-01  4.15360e-02  1.61366e-01
       O  8.24721e-01  1.35050e-01 -3.20751e-01
       H -1.28873e+00  6.80535e-01  5.34076e-01
       H -4.11718e-01 -6.59683e-01  8.14468e-01
       L  1.22050e+02  5.25274e+00  8.25233e-01
       L -2.90076e+00  1.99048e+01  7.45935e-01
6
# CELL(abcABC):  459.05226   459.05226   459.05226    90.00000    90.00000    90.00000  Step:          53  Bead:       0 x_centroid{angstrom}  cell{atomic_unit}
       C -2.16870e-01  5.01394e-02  1.73496e-01
       O  8.28060e-01  1.29769e-01 -3.28504e-01
       H -1.32009e+00  6.51972e-01  5.32795e-01
       H -4.37322e-01 -6.50355e-01  7.94343e-01
       L  1.24259e+02  4.94636e+00  7.57088e-01
       L -2.74262e+00  2.12138e+01  6.84539e-01
6
# CELL(abcABC):  459.05226   459.05226   459.05226    90.00000    90.00000    90.00000  Step:          54  Bead:       0 x_centroid{angstrom}  cell{atomic_unit}
       C -2.18454e-01  6.05738e-02  1.85847e-01
       O  8.31957e-01  1.24363e-01 -3.36581e-01
       H -1.33926e+00  6.21113e-01  5.23138e-01
       H -4.62401e-01 -6.58535e-01  7.85121e-01
       L  1.26397e+02  4.55523e+00  6.93923e-01
       L -2.53314e+00  2.25712e+01  5.95951e-01
6
# CELL(abcABC):  459.05226   459.05226   459.05226    90.00000    90.00000    90.00000  Step:          55  Bead:       0 x_centroid{angstrom}  cell{atomic_unit}
       C -2.20417e-01  7.18688e-02  1.97984e-01
       O  8.35619e-01  1.19019e-01 -3.44563e-01
       H -1.34976e+00  5.94140e-01  5.05927e-01
       H -4.87922e-01 -6.81902e-01  7.84469e-01
       L  1.28535e+02  4.17241e+00  6.61340e-01
       L -2.31086e+00  2.39853e+01  5.01063e-01
6
# CELL(abcABC):  459.05226   459.05226   459.05226    90.00000    90.00000    90.00000  Step:          56  Bead:       0 x_centroid{angstrom}  cell{atomic_unit}
       C -2.21405e-01  8.28045e-02  2.10142e-01
       O  8.38215e-01  1.14249e-01 -3.52513e-01
       H -1.35544e+00  5.72322e-01  4.83634e-01
       H -5.13003e-01 -7.15228e-01  7.88190e-01
       L  1.30703e+02  3.80910e+00  5.98012e-01
       L -2.03697e+00  2.53565e+01  3.86706e-01
6
# CELL(abcABC):  459.05226   459.05226   459.05226    90.00000    90.00000    90.00000  Step:          57  Bead:       0 x_centroid{angstrom}  cell{atomic_unit}
       C -2.20633e-01  9.25358e-02  2.21988e-01
       O  8.39166e-01  1.10155e-01 -3.60033e-01
       H -1.35813e+00  5.57640e-01  4.56675e-01
       H -5.35937e-01 -7.52022e-01  7.93491e-01
       L  1.32898e+02  3.40309e+00  5.06024e-01
       L -1.80883e+00  2.67001e+01  2.26263e-01
6
# CELL(abcABC):  459.05226   459.05226   459.05226    90.00000    90.00000    90.00000  Step:          58  Bead:       0 x_centroid{angstrom}  cell{atomic_unit}
       C -2.17940e-01  9.95994e-02  2.33759e-01
       O  8.38443e-01  1.07303e-01 -3.67056e-01
       H -1.36102e+00  5.53226e-01  4.25435e-01
       H -5.55081e-01 -7.86941e-01  7.96099e-01
       L  1.35232e+02  2.91173e+00  3.83770e-01
       L -1.55403e+00  2.79820e+01  5.45997e-02
6
# CELL(abcABC):  459.05226   459.05226   459.05226    90.00000    90.00000    90.00000  Step:          59  Bead:       0 x_centroid{angstrom}  cell{atomic_unit}
       C -2.13910e-01  1.03570e-01  2.45539e-01
       O  8.36386e-01  1.05784e-01 -3.73525e-01
       H -1.36570e+00  5.56859e-01  3.89777e-01
       H -5.67242e-01 -8.14065e-01  7.94237e-01
       L  1.37641e+02  2.33682e+00  2.78439e-01
       L -1.25671e+00  2.90972e+01 -1.36426e-01
6
# CELL(abcABC):  459.05226   459.05226   459.05226    90.00000    90.00000    90.00000  Step:          60  Bead:       0 x_centroid{angstrom}  cell{atomic_unit}
       C -2.08911e-01  1.03749e-01  2.57901e-01
       O  8.33218e-01  1.05802e-01 -3.79840e-01
       H -1.37075e+00  5.70414e-01  3.50143e-01
       H -5.72948e-01 -8.30181e-01  7.86999e-01
       L  1.40068e+02  1.69338e+00  1.63907e-01
       L -9.43130e-01  3.00026e+01 -3.75553e-01
6
# CELL(abcABC):  459.05226   459.05226   459.05226    90.00000    90.00000    90.00000  Step:          61  Bead:       0 x_centroid{angstrom}  cell{atomic_unit}
       C -2.03516e-01  1.00572e-01  2.70721e-01
       O  8.29295e-01  1.07272e-01 -3.85832e-01
       H -1.37530e+00  5.91295e-01  3.04802e-01
       H -5.71903e-01 -8.36540e-01  7.74884e-01
       L  1.42495e+02  9.86233e-01  3.31644e-02
       L -6.41186e-01  3.07209e+01 -6.12537e-01
6
# CELL(abcABC):  459.05226   459.05226   459.05226    90.00000    90.00000    90.00000  Step:          62  Bead:       0 x_centroid{angstrom}  cell{atomic_unit}
       C -1.98549e-01  9.45133e-02  2.83797e-01
       O  8.25102e-01  1.10079e-01 -3.91625e-01
       H -1.37628e+00  6.16863e-01  2.55255e-01
       H -5.65003e-01 -8.34439e-01  7.60760e-01
       L  1.44923e+02  3.56923e-01 -8.86234e-02
       L -4.15700e-01  3.12868e+01 -8.27396e-01
6
# CELL(abcABC):  459.05226   459.05226   459.05226    90.00000    90.00000    90.00000  Step:          63  Bead:       0 x_centroid{angstrom}  cell{atomic_unit}
       C -1.95137e-01  8.66367e-02  2.97143e-01
       O  8.21289e-01  1.13789e-01 -3.97276e-01
       H -1.36934e+00  6.43743e-01  2.02291e-01
       H -5.53516e-01 -8.26253e-01  7.44571e-01
       L  1.47312e+02 -2.31603e-01 -2.22727e-01
       L -1.65354e-01  3.16892e+01 -1.01305e+00
6
# CELL(abcABC):  459.05226   459.05226   459.05226    90.00000    90.00000    90.00000  Step:          64  Bead:       0 x_centroid{angstrom}  cell{atomic_unit}
       C -1.93700e-01  7.82291e-02  3.09872e-01
       O  8.18075e-01  1.17945e-01 -4.02659e-01
       H -1.35114e+00  6.70562e-01  1.49226e-01
       H -5.39135e-01 -8.18673e-01  7.31573e-01
       L  1.49536e+02 -8.58405e-01 -3.50281e-01
       L  4.75226e-02  3.19855e+01 -1.20901e+00
6
# CELL(abcABC):  459.05226   459.05226   459.05226    90.00000    90.00000    90.00000  Step:          65  Bead:       0 x_centroid{angstrom}  cell{atomic_unit}
       C -1.95156e-01  7.00406e-02  3.22271e-01
       O  8.15871e-01  1.22123e-01 -4.08142e-01
       H -1.31701e+00  6.97384e-01  9.90560e-02
       H -5.22173e-01 -8.14033e-01  7.21217e-01
       L  1.51597e+02 -1.51451e+00 -4.59468e-01
       L  2.55679e-01  3.22648e+01 -1.45111e+00
6
# CELL(abcABC):  459.05226   459.05226   459.05226    90.00000    90.00000    90.00000  Step:          66  Bead:       0 x_centroid{angstrom}  cell{atomic_unit}
       C -1.98837e-01  6.25428e-02  3.33308e-01