6
# CELL(abcABC):  459.05226   459.05226   459.05226    90.00000    90.00000    90.00000  Step:           0  Bead:       0 x_centroid{angstrom}  cell{atomic_unit}
       C -3.39887e-01 -1.13437e-01  8.06659e-02
       O  8.43483e-01  2.62672e-01 -1.81512e-01
       H -7.35799e-02  8.16467e-01 -6.61432e-01
       H -4.30016e-01 -9.65701e-01  7.62278e-01
       L  6.13458e+01  0.00000e+00  0.00000e+00
       L  0.00000e+00  8.59064e+00  0.00000e+00
6
# CELL(abcABC):  459.05226   459.05226   459.05226    90.00000    90.00000    90.00000  Step:           1  Bead:       0 x_centroid{angstrom}  cell{atomic_unit}
       C -3.40928e-01 -1.15826e-01  7.78093e-02
       O  8.43446e-01  2.64811e-01 -1.79520e-01
       H -6.92786e-02  8.15683e-01 -6.67107e-01
       H -4.21632e-01 -9.70321e-01  7.70476e-01
       L  6.18316e+01  6.38878e-02 -6.51962e-01
       L  8.64033e-02  8.34737e+00  4.58533e-01
6
# CELL(abcABC):  459.05226   459.05226   459.05226    90.00000    90.00000    90.00000  Step:           2  Bead:       0 x_centroid{angstrom}  cell{atomic_unit}
       C -3.41944e-01 -1.17683e-01  7.49522e-02
       O  8.43611e-01  2.66599e-01 -1.77401e-01
       H -6.83483e-02  8.13130e-01 -6.73311e-01
       H -4.13358e-01 -9.73922e-01  7.77185e-01
       L  6.23044e+01  9.55354e-02 -1.26127e+00
       L  1.26613e-01  8.14539e+00  8.97320e-01
6
# CELL(abcABC):  459.05226   459.05226   459.05226    90.00000    90.00000    90.00000  Step:           3  Bead:       0 x_centroid{angstrom}  cell{atomic_unit}
       C -3.43082e-01 -1.19846e-01  7.23148e-02
       O  8.44258e-01  2.68658e-01 -1.75382e-01
       H -7.22534e-02  8.10198e-01 -6.79375e-01
       H -4.06412e-01 -9.77811e-01  7.82718e-01
       L  6.27806e+01  1.30854e-01 -1.91214e+00
       L  1.28659e-01  7.95611e+00  1.38514e+00
6
# CELL(abcABC):  459.05226   459.05226   459.05226    90.00000    90.00000    90.00000  Step:           4  Bead:       0 x_centroid{angstrom}  cell{atomic_unit}
       C -3.43962e-01 -1.22033e-01  7.01480e-02
       O  8.45036e-01  2.70761e-01 -1.73545e-01
       H -7.98820e-02  8.05716e-01 -6.85953e-01
       H -4.00896e-01 -9.80536e-01  7.86030e-01
       L  6.32819e+01  1.61001e-01 -2.52856e+00
       L  9.26291e-02  7.71198e+00  1.85512e+00
6
# CELL(abcABC):  459.05226   459.05226   459.05226    90.00000    90.00000    90.00000  Step:           5  Bead:       0 x_centroid{angstrom}  cell{atomic_unit}
       C -3.44840e-01 -1.24659e-01  6.80841e-02
       O  8.46009e-01  2.73038e-01 -1.71663e-01
       H -8.86264e-02  8.01467e-01 -6.92841e-01
       H -3.97411e-01 -9.80983e-01  7.87685e-01
       L  6.37627e+01  1.59312e-01 -3.09545e+00
       L  8.84006e-02  7.43391e+00  2.32841e+00
6
# CELL(abcABC):  459.05226   459.05226   459.05226    90.00000    90.00000    90.00000  Step:           6  Bead:       0 x_centroid{angstrom}  cell{atomic_unit}
       C -3.45447e-01 -1.27290e-01  6.62631e-02
       O  8.46761e-01  2.75325e-01 -1.69947e-01
       H -9.62614e-02  7.97261e-01 -7.00056e-01
       H -3.94703e-01 -9.81609e-01  7.89402e-01
       L  6.42285e+01  1.84312e-01 -3.66124e+00
       L  6.05288e-02  7.19377e+00  2.81506e+00
6
# CELL(abcABC):  459.05226   459.05226   459.05226    90.00000    90.00000    90.00000  Step:           7  Bead:       0 x_centroid{angstrom}  cell{atomic_unit}
       C -3.45455e-01 -1.30045e-01  6.46146e-02
       O  8.46726e-01  2.77568e-01 -1.68427e-01
       H -9.96894e-02  7.93969e-01 -7.06104e-01
       H -3.90904e-01 -9.80989e-01  7.91027e-01
       L  6.47466e+01  2.15910e-01 -4.21188e+00
       L  4.25385e-02  6.96700e+00  3.24974e+00
6
# CELL(abcABC):  459.05226   459.05226   459.05226    90.00000    90.00000    90.00000  Step:           8  Bead:       0 x_centroid{angstrom}  cell{atomic_unit}
       C -3.44850e-01 -1.33018e-01  6.28726e-02
       O  8.45903e-01  2.79891e-01 -1.66837e-01
       H -1.00100e-01  7.91391e-01 -7.11276e-01
       H -3.84942e-01 -9.79747e-01  7.91834e-01
       L  6.52536e+01  2.32711e-01 -4.75888e+00
       L  7.38164e-02  6.74484e+00  3.60395e+00
6
# CELL(abcABC):  459.05226   459.05226   459.05226    90.00000    90.00000    90.00000  Step:           9  Bead:       0 x_centroid{angstrom}  cell{atomic_unit}
       C -3.43938e-01 -1.36038e-01  6.11025e-02
       O  8.44577e-01  2.82066e-01 -1.65196e-01
       H -9.72872e-02  7.90494e-01 -7.16158e-01
       H -3.77853e-01 -9.77350e-01  7.91848e-01
       L  6.57525e+01  2.93934e-01 -5.26860e+00
       L  8.55845e-02  6.61369e+00  3.93995e+00
6
# CELL(abcABC):  459.05226   459.05226   459.05226    90.00000    90.00000    90.00000  Step:          10  Bead:       0 x_centroid{angstrom}  cell{atomic_unit}
       C -3.42691e-01 -1.39085e-01  5.89396e-02
       O  8.42954e-01  2.84199e-01 -1.63363e-01
       H -9.26653e-02  7.89469e-01 -7.19869e-01
       H -3.71930e-01 -9.73824e-01  7.92335e-01
       L  6.63342e+01  3.67728e-01 -5.74063e+00
       L  1.81729e-01  6.43631e+00  4.24302e+00
6
# CELL(abcABC):  459.05226   459.05226   459.05226    90.00000    90.00000    90.00000  Step:          11  Bead:       0 x_centroid{angstrom}  cell{atomic_unit}
       C -3.41145e-01 -1.42109e-01  5.67385e-02
       O  8.41381e-01  2.86321e-01 -1.61604e-01
       H -9.06684e-02  7.86496e-01 -7.21231e-01
       H -3.67731e-01 -9.68432e-01  7.92079e-01
       L  6.69015e+01  3.97797e-01 -6.17111e+00
       L  2.47634e-01  6.28404e+00  4.51684e+00
6
# CELL(abcABC):  459.05226   459.05226   459.05226    90.00000    90.00000    90.00000  Step:          12  Bead:       0 x_centroid{angstrom}  cell{atomic_unit}
       C -3.39611e-01 -1.44915e-01  5.43709e-02
       O  8.40223e-01  2.88297e-01 -1.59835e-01
       H -9.38874e-02  7.82957e-01 -7.21890e-01
       H -3.64704e-01 -9.62775e-01  7.92928e-01
       L  6.73906e+01  4.54525e-01 -6.53225e+00
       L  2.95150e-01  6.15453e+00  4.78744e+00
6
# CELL(abcABC):  459.05226   459.05226   459.05226    90.00000    90.00000    90.00000  Step:          13  Bead:       0 x_centroid{angstrom}  cell{atomic_unit}
       C -3.37965e-01 -1.47830e-01  5.16242e-02
       O  8.39372e-01  2.90287e-01 -1.57890e-01
       H -1.01919e-01  7.79567e-01 -7.21671e-01
       H -3.63028e-01 -9.56197e-01  7.94614e-01
       L  6.78664e+01  4.67612e-01 -6.82373e+00
       L  3.06836e-01  6.05669e+00  4.99699e+00
6
# CELL(abcABC):  459.05226   459.05226   459.05226    90.00000    90.00000    90.00000  Step:          14  Bead:       0 x_centroid{angstrom}  cell{atomic_unit}
       C -3.36123e-01 -1.50514e-01  4.90979e-02
       O  8.38676e-01  2.92017e-01 -1.56057e-01
       H -1.12738e-01  7.76508e-01 -7.21274e-01
       H -3.63354e-01 -9.48578e-01  7.95270e-01
       L  6.82817e+01  4.51052e-01 -7.06655e+00
       L  3.18262e-01  6.01258e+00  5.15329e+00
6
# CELL(abcABC):  459.05226   459.05226   459.05226    90.00000    90.00000    90.00000  Step:          15  Bead:       0 x_centroid{angstrom}  cell{atomic_unit}
       C -3.33970e-01 -1.53197e-01  4.64172e-02
       O  8.37762e-01  2.93626e-01 -1.54204e-01
       H -1.22301e-01  7.75687e-01 -7.21071e-01
       H -3.65145e-01 -9.41303e-01  7.97640e-01
       L  6.87253e+01  3.82080e-01 -7.26099e+00
       L  2.82505e-01  6.03713e+00  5.26746e+00
6
# CELL(abcABC):  459.05226   459.05226   459.05226    90.00000    90.00000    90.00000  Step:          16  Bead:       0 x_centroid{angstrom}  cell{atomic_unit}
       C -3.31349e-01 -1.55966e-01  4.36094e-02
       O  8.36364e-01  2.95103e-01 -1.52455e-01
       H -1.29205e-01  7.77135e-01 -7.19589e-01
       H -3.67490e-01 -9.33164e-01  8.01890e-01
       L  6.91474e+01  2.69355e-01 -7.39882e+00
       L  2.20463e-01  6.06125e+00  5.32860e+00
6
# CELL(abcABC):  459.05226   459.05226   459.05226    90.00000    90.00000    90.00000  Step:          17  Bead:       0 x_centroid{angstrom}  cell{atomic_unit}
       C -3.28441e-01 -1.58747e-01  4.09329e-02
       O  8.34616e-01  2.96521e-01 -1.50965e-01
       H -1.33419e-01  7.80175e-01 -7.18264e-01
       H -3.70398e-01 -9.25531e-01  8.08829e-01
       L  6.96215e+01  2.16121e-01 -7.45406e+00
       L  1.36300e-01  6.06101e+00  5.35815e+00
6
# CELL(abcABC):  459.05226   459.05226   459.05226    90.00000    90.00000    90.00000  Step:          18  Bead:       0 x_centroid{angstrom}  cell{atomic_unit}
       C -3.25087e-01 -1.61391e-01  3.81259e-02
       O  8.32289e-01  2.97875e-01 -1.49599e-01
       H -1.34188e-01  7.84484e-01 -7.16682e-01
       H -3.72870e-01 -9.19839e-01  8.18970e-01
       L  7.01172e+01  1.80406e-01 -7.40508e+00
       L  3.46801e-02  6.10707e+00  5.38886e+00
6
# CELL(abcABC):  459.05226   459.05226   459.05226    90.00000    90.00000    90.00000  Step:          19  Bead:       0 x_centroid{angstrom}  cell{atomic_unit}
       C -3.21840e-01 -1.63759e-01  3.50125e-02
       O  8.30155e-01  2.99100e-01 -1.47967e-01
       H -1.36995e-01  7.87925e-01 -7.14556e-01
       H -3.75110e-01 -9.14506e-01  8.27974e-01
       L  7.06736e+01  1.34602e-01 -7.26752e+00
       L -8.08887e-02  6.16066e+00  5.35731e+00
6
# CELL(abcABC):  459.05226   459.05226   459.05226    90.00000    90.00000    90.00000  Step:          20  Bead:       0 x_centroid{angstrom}  cell{atomic_unit}
       C -3.18571e-01 -1.66246e-01  3.22261e-02
       O  8.28257e-01  3.00712e-01 -1.46616e-01
       H -1.42416e-01  7.87711e-01 -7.11454e-01
       H -3.78784e-01 -9.10213e-01  8.36580e-01
       L  7.11972e+01  6.95746e-02 -7.09586e+00
       L -1.40659e-01  6.16394e+00  5.28698e+00
6
# CELL(abcABC):  459.05226   459.05226   459.05226    90.00000    90.00000    90.00000  Step:          21  Bead:       0 x_centroid{angstrom}  cell{atomic_unit}
       C -3.15338e-01 -1.68742e-01  2.92705e-02
       O  8.26537e-01  3.02623e-01 -1.45060e-01
       H -1.50398e-01  7.83993e-01 -7.08375e-01
       H -3.82329e-01 -9.07089e-01  8.43933e-01
       L  7.18341e+01  4.83919e-02 -6.86275e+00
       L -2.02958e-01  6.18485e+00  5.20734e+00
6
# CELL(abcABC):  459.05226   459.05226   459.05226    90.00000    90.00000    90.00000  Step:          22  Bead:       0 x_centroid{angstrom}  cell{atomic_unit}
       C -3.12137e-01 -1.71228e-01  2.59037e-02
       O  8.25073e-01  3.04894e-01 -1.43205e-01
       H -1.62099e-01  7.76390e-01 -7.04824e-01
       H -3.85838e-01 -9.05912e-01  8.50975e-01
       L  7.24646e+01  2.00190e-03 -6.57901e+00
       L -2.70561e-01  6.21476e+00  5.07846e+00
6
# CELL(abcABC):  459.05226   459.05226   459.05226    90.00000    90.00000    90.00000  Step:          23  Bead:       0 x_centroid{angstrom}  cell{atomic_unit}
       C -3.08917e-01 -1.73794e-01  2.28041e-02
       O  8.23639e-01  3.07248e-01 -1.41602e-01
       H -1.75250e-01  7.67313e-01 -7.00263e-01
       H -3.88630e-01 -9.03636e-01  8.57777e-01
       L  7.31293e+01 -7.09788e-02 -6.21310e+00
       L -3.32658e-01  6.32744e+00  4.92679e+00
6
# CELL(abcABC):  459.05226   459.05226   459.05226    90.00000    90.00000    90.00000  Step:          24  Bead:       0 x_centroid{angstrom}  cell{atomic_unit}
       C -3.05537e-01 -1.76093e-01  1.98402e-02
       O  8.22135e-01  3.09464e-01 -1.40104e-01
       H -1.89040e-01  7.57803e-01 -6.96339e-01
       H -3.91580e-01 -9.01944e-01  8.65268e-01
       L  7.37943e+01 -1.73673e-01 -5.72518e+00
       L -3.63211e-01  6.48789e+00  4.66682e+00
6
# CELL(abcABC):  459.05226   459.05226   459.05226    90.00000    90.00000    90.00000  Step:          25  Bead:       0 x_centroid{angstrom}  cell{atomic_unit}
       C -3.01375e-01 -1.78196e-01  1.67152e-02
       O  8.19867e-01  3.11538e-01 -1.38502e-01
       H -1.98968e-01  7.49343e-01 -6.92959e-01
       H -3.95609e-01 -9.01435e-01  8.73588e-01
       L  7.45090e+01 -2.75636e-01 -5.18611e+00
       L -4.24019e-01  6.74726e+00  4.33173e+00
6
# CELL(abcABC):  459.05226   459.05226   459.05226    90.00000    90.00000    90.00000  Step:          26  Bead:       0 x_centroid{angstrom}  cell{atomic_unit}
       C -2.96896e-01 -1.80559e-01  1.38521e-02
       O  8.17070e-01  3.13565e-01 -1.37115e-01
       H -2.05659e-01  7.44197e-01 -6.90259e-01
       H -3.98299e-01 -9.00420e-01  8.82891e-01
       L  7.53129e+01 -3.34793e-01 -4.62844e+00
       L -4.88113e-01  7.05610e+00  3.95049e+00
6
# CELL(abcABC):  459.05226   459.05226   459.05226    90.00000    90.00000    90.00000  Step:          27  Bead:       0 x_centroid{angstrom}  cell{atomic_unit}
       C -2.92055e-01 -1.83031e-01  1.09273e-02
       O  8.13691e-01  3.15426e-01 -1.35686e-01
       H -2.10295e-01  7.40495e-01 -6.89180e-01
       H -3.98156e-01 -8.96987e-01  8.93883e-01
       L  7.62256e+01 -3.74273e-01 -4.01802e+00
       L -5.51068e-01  7.41339e+00  3.51929e+00
6
# CELL(abcABC):  459.05226   459.05226   459.05226    90.00000    90.00000    90.00000  Step:          28  Bead:       0 x_centroid{angstrom}  cell{atomic_unit}
       C -2.87067e-01 -1.85729e-01  7.93321e-03
       O  8.10299e-01  3.17207e-01 -1.34032e-01
       H -2.16384e-01  7.38628e-01 -6.88493e-01
       H -3.98132e-01 -8.91421e-01  9.02513e-01
       L  7.71251e+01 -4.19154e-01 -3.34965e+00
       L -6.14700e-01  7.80306e+00  3.06585e+00
6
# CELL(abcABC):  459.05226   459.05226   459.05226    90.00000    90.00000    90.00000  Step:          29  Bead:       0 x_centroid{angstrom}  cell{atomic_unit}
       C -2.82287e-01 -1.88515e-01  5.08752e-03
       O  8.07441e-01  3.18870e-01 -1.32256e-01
       H -2.28225e-01  7.37836e-01 -6.89287e-01
       H -3.98339e-01 -8.84066e-01  9.08912e-01
       L  7.80518e+01 -4.37768e-01 -2.68054e+00
       L -6.83255e-01  8.23249e+00  2.58810e+00
6
# CELL(abcABC):  459.05226   459.05226   459.05226    90.00000    90.00000    90.00000  Step:          30  Bead:       0 x_centroid{angstrom}  cell{atomic_unit}
       C -2.77961e-01 -1.91290e-01  2.47150e-03
       O  8.05146e-01  3.20497e-01 -1.30480e-01
       H -2.44042e-01  7.36096e-01 -6.90101e-01
       H -3.98109e-01 -8.75313e-01  9.12619e-01
       L  7.89852e+01 -4.42702e-01 -2.00638e+00
       L -7.74607e-01  8.65708e+00  2.09094e+00
6
# CELL(abcABC):  459.05226   459.05226   459.05226    90.00000    90.00000    90.00000  Step:          31  Bead:       0 x_centroid{angstrom}  cell{atomic_unit}
       C -2.73578e-01 -1.94197e-01 -6.48321e-05
       O  8.03089e-01  3.22117e-01 -1.28536e-01
       H -2.64520e-01  7.34790e-01 -6.92528e-01
       H -3.97704e-01 -8.65304e-01  9.14335e-01
       L  7.99561e+01 -4.54539e-01 -1.34364e+00
       L -8.29144e-01  9.09272e+00  1.54827e+00
6
# CELL(abcABC):  459.05226   459.05226   459.05226    90.00000    90.00000    90.00000  Step:          32  Bead:       0 x_centroid{angstrom}  cell{atomic_unit}
       C -2.68992e-01 -1.97081e-01 -2.55390e-03
       O  8.01086e-01  3.23524e-01 -1.26651e-01
       H -2.87462e-01  7.35968e-01 -6.94109e-01
       H -3.98105e-01 -8.54749e-01  9.15636e-01
       L  8.09197e+01 -4.11947e-01 -7.05986e-01
       L -8.73687e-01  9.58631e+00  9.62773e-01
6
# CELL(abcABC):  459.05226   459.05226   459.05226    90.00000    90.00000    90.00000  Step:          33  Bead:       0 x_centroid{angstrom}  cell{atomic_unit}
       C -2.64301e-01 -1.99593e-01 -5.00455e-03
       O  7.99059e-01  3.24405e-01 -1.24841e-01
       H -3.11501e-01  7.40142e-01 -6.95647e-01
       H -3.98349e-01 -8.43304e-01  9.17669e-01
       L  8.19955e+01 -3.92751e-01 -1.00277e-01
       L -9.28215e-01  1.01691e+01  3.17208e-01
6
# CELL(abcABC):  459.05226   459.05226   459.05226    90.00000    90.00000    90.00000  Step:          34  Bead:       0 x_centroid{angstrom}  cell{atomic_unit}
       C -2.59322e-01 -2.01873e-01 -7.45281e-03
       O  7.96993e-01  3.24981e-01 -1.23042e-01
       H -3.36835e-01  7.45658e-01 -6.97786e-01
       H -4.00173e-01 -8.31087e-01  9.20452e-01
       L  8.31472e+01 -3.91800e-01  4.86310e-01
       L -9.64459e-01  1.07335e+01 -3.14687e-01
6
# CELL(abcABC):  459.05226   459.05226   459.05226    90.00000    90.00000    90.00000  Step:          35  Bead:       0 x_centroid{angstrom}  cell{atomic_unit}
       C -2.53977e-01 -2.04024e-01 -1.01977e-02
       O  7.94509e-01  3.25385e-01 -1.21201e-01
       H -3.61421e-01  7.52100e-01 -6.98839e-01
       H -4.00531e-01 -8.18668e-01  9.24999e-01
       L  8.44025e+01 -3.85822e-01  1.06303e+00
       L -9.36369e-01  1.13705e+01 -9.26849e-01
6
# CELL(abcABC):  459.05226   459.05226   459.05226    90.00000    90.00000    90.00000  Step:          36  Bead:       0 x_centroid{angstrom}  cell{atomic_unit}
       C -2.48374e-01 -2.05762e-01 -1.32994e-02
       O  7.91688e-01  3.25476e-01 -1.19421e-01
       H -3.85784e-01  7.58525e-01 -6.97489e-01
       H -3.98927e-01 -8.06200e-01  9.32380e-01
       L  8.57542e+01 -3.67519e-01  1.67130e+00
       L -8.98559e-01  1.20489e+01 -1.56864e+00
6
# CELL(abcABC):  459.05226   459.05226   459.05226    90.00000    90.00000    90.00000  Step:          37  Bead:       0 x_centroid{angstrom}  cell{atomic_unit}
       C -2.42616e-01 -2.07497e-01 -1.62386e-02
       O  7.88829e-01  3.25624e-01 -1.17917e-01
       H -4.11969e-01  7.62240e-01 -6.95258e-01
       H -3.96764e-01 -7.92005e-01  9.41271e-01
       L  8.71735e+01 -3.57845e-01  2.27348e+00
       L -8.51007e-01  1.27869e+01 -2.13320e+00
6
# CELL(abcABC):  459.05226   459.05226   459.05226    90.00000    90.00000    90.00000  Step:          38  Bead:       0 x_centroid{angstrom}  cell{atomic_unit}
       C -2.36984e-01 -2.08668e-01 -1.94364e-02
       O  7.86283e-01  3.25446e-01 -1.16479e-01
       H -4.40562e-01  7.63647e-01 -6.90895e-01
       H -3.95715e-01 -7.77109e-01  9.52184e-01
       L  8.86979e+01 -3.22111e-01  2.81202e+00
       L -8.26582e-01  1.36227e+01 -2.65612e+00
6
# CELL(abcABC):  459.05226   459.05226   459.05226    90.00000    90.00000    90.00000  Step:          39  Bead:       0 x_centroid{angstrom}  cell{atomic_unit}
       C -2.31679e-01 -2.09242e-01 -2.26920e-02
       O  7.84262e-01  3.24896e-01 -1.15098e-01
       H -4.73910e-01  7.63090e-01 -6.86461e-01
       H -3.94391e-01 -7.61493e-01  9.64598e-01
       L  9.03136e+01 -3.25065e-01  3.36939e+00
       L -7.99044e-01  1.45736e+01 -3.15359e+00
6
# CELL(abcABC):  459.05226   459.05226   459.05226    90.00000    90.00000    90.00000  Step:          40  Bead:       0 x_centroid{angstrom}  cell{atomic_unit}
       C -2.26906e-01 -2.08759e-01 -2.61563e-02
       O  7.83093e-01  3.23712e-01 -1.13648e-01
       H -5.12973e-01  7.60839e-01 -6.80849e-01
       H -3.94593e-01 -7.46790e-01  9.77238e-01
       L  9.19407e+01 -3.05768e-01  3.91521e+00
       L -7.16516e-01  1.56201e+01 -3.68560e+00
6
# CELL(abcABC):  459.05226   459.05226   459.05226    90.00000    90.00000    90.00000  Step:          41  Bead:       0 x_centroid{angstrom}  cell{atomic_unit}
       C -2.22402e-01 -2.07699e-01 -2.95316e-02
       O  7.82490e-01  3.22410e-01 -1.12399e-01
       H -5.57520e-01  7.53717e-01 -6.72728e-01
       H -3.95126e-01 -7.32254e-01  9.89537e-01
       L  9.36528e+01 -2.65343e-01  4.42680e+00
       L -6.15805e-01  1.67398e+01 -4.25377e+00
6
# CELL(abcABC):  459.05226   459.05226   459.05226    90.00000    90.00000    90.00000  Step:          42  Bead:       0 x_centroid{angstrom}  cell{atomic_unit}
       C -2.18525e-01 -2.06124e-01 -3.32231e-02
       O  7.82694e-01  3.20972e-01 -1.11062e-01
       H -6.06070e-01  7.40975e-01 -6.62256e-01
       H -3.97000e-01 -7.16156e-01  1.00182e+00
       L  9.54033e+01 -1.76596e-01  4.91962e+00
       L -5.31745e-01  1.79223e+01 -4.74405e+00
6
# CELL(abcABC):  459.05226   459.05226   459.05226    90.00000    90.00000    90.00000  Step:          43  Bead:       0 x_centroid{angstrom}  cell{atomic_unit}
       C -2.15574e-01 -2.03821e-01 -3.69098e-02
       O  7.83970e-01  3.19356e-01 -1.09874e-01
       H -6.60186e-01  7.22205e-01 -6.47936e-01
       H -3.99355e-01 -6.99919e-01  1.01259e+00
       L  9.71873e+01 -1.03011e-01  5.36582e+00
       L -3.85570e-01  1.92139e+01 -5.20225e+00
6
# CELL(abcABC):  459.05226   459.05226   459.05226    90.00000    90.00000    90.00000  Step:          44  Bead:       0 x_centroid{angstrom}  cell{atomic_unit}
       C -2.13338e-01 -2.00823e-01 -4.07579e-02
       O  7.86108e-01  3.17519e-01 -1.08698e-01
       H -7.19069e-01  6.98395e-01 -6.30812e-01
       H -4.02133e-01 -6.83491e-01  1.02268e+00
       L  9.90059e+01  2.35193e-02  5.75428e+00
       L -2.30767e-01  2.05936e+01 -5.62021e+00
6
# CELL(abcABC):  459.05226   459.05226   459.05226    90.00000    90.00000    90.00000  Step:          45  Bead:       0 x_centroid{angstrom}  cell{atomic_unit}
       C -2.12073e-01 -1.97254e-01 -4.47583e-02
       O  7.89238e-01  3.15643e-01 -1.07529e-01
       H -7.82200e-01  6.69311e-01 -6.10922e-01
       H -4.04872e-01 -6.68045e-01  1.03191e+00
       L  1.00877e+02  1.97029e-01  6.07628e+00
       L -4.75755e-02  2.20655e+01 -5.97568e+00
6
# CELL(abcABC):  459.05226   459.05226   459.05226    90.00000    90.00000    90.00000  Step:          46  Bead:       0 x_centroid{angstrom}  cell{atomic_unit}
       C -2.11915e-01 -1.92927e-01 -4.89096e-02
       O  7.93593e-01  3.13603e-01 -1.06437e-01
       H -8.49239e-01  6.34224e-01 -5.87153e-01
       H -4.09997e-01 -6.53074e-01  1.04030e+00
       L  1.02774e+02  3.42434e-01  6.33238e+00
       L  1.47557e-01  2.36341e+01 -6.29107e+00
6
# CELL(abcABC):  459.05226   459.05226   459.05226    90.00000    90.00000    90.00000  Step:          47  Bead:       0 x_centroid{angstrom}  cell{atomic_unit}
       C -2.12427e-01 -1.87532e-01 -5.30852e-02
       O  7.98724e-01  3.11138e-01 -1.05287e-01
       H -9.19201e-01  5.92508e-01 -5.62406e-01
       H -4.16512e-01 -6.37523e-01  1.04711e+00
       L  1.04669e+02  5.27983e-01  6.51540e+00
       L  3.49738e-01  2.53081e+01 -6.55392e+00
6
# CELL(abcABC):  459.05226   459.05226   459.05226    90.00000    90.00000    90.00000  Step:          48  Bead:       0 x_centroid{angstrom}  cell{atomic_unit}
       C -2.13710e-01 -1.81357e-01 -5.72880e-02
       O  8.04470e-01  3.08442e-01 -1.03930e-01
       H -9.88855e-01  5.45760e-01 -5.36606e-01
       H -4.23897e-01 -6.22628e-01  1.04988e+00
       L  1.06583e+02  7.11055e-01  6.69339e+00
       L  4.97121e-01  2.70743e+01 -6.80731e+00
6
# CELL(abcABC):  459.05226   459.05226   459.05226    90.00000    90.00000    90.00000  Step:          49  Bead:       0 x_centroid{angstrom}  cell{atomic_unit}
       C -2.15461e-01 -1.74466e-01 -6.10676e-02
       O  8.10596e-01  3.05569e-01 -1.02877e-01
       H -1.05894e+00  4.94590e-01 -5.08576e-01
       H -4.31359e-01 -6.09085e-01  1.05022e+00
       L  1.08571e+02  9.07394e-01  6.77790e+00
       L  6.47097e-01  2.89217e+01 -6.95518e+00
6
# CELL(abcABC):  459.05226   459.05226   459.05226    90.00000    90.00000    90.00000  Step:          50  Bead:       0 x_centroid{angstrom}  cell{atomic_unit}
       C -2.17473e-01 -1.66874e-01 -6.42038e-02
       O  8.17011e-01  3.02397e-01 -1.02060e-01
       H -1.12826e+00  4.40086e-01 -4.81158e-01
       H -4.41081e-01 -5.95858e-01  1.04723e+00
       L  1.10636e+02  1.13277e+00  6.78226e+00
       L  7.99121e-01  3.08269e+01 -7.00562e+00
6
# CELL(abcABC):  459.05226   459.05226   459.05226    90.00000    90.00000    90.00000  Step:          51  Bead:       0 x_centroid{angstrom}  cell{atomic_unit}
       C -2.19791e-01 -1.58761e-01 -6.65178e-02
       O  8.23420e-01  2.99034e-01 -1.01525e-01
       H -1.19498e+00  3.82934e-01 -4.55194e-01
       H -4.49714e-01 -5.83179e-01  1.04036e+00
       L  1.12770e+02  1.33722e+00  6.75636e+00
       L  9.39283e-01  3.28109e+01 -6.99653e+00
6
# CELL(abcABC):  459.05226   459.05226   459.05226    90.00000    90.00000    90.00000  Step:          52  Bead:       0 x_centroid{angstrom}  cell{atomic_unit}
       C -2.22025e-01 -1.50297e-01 -6.80467e-02
       O  8.29623e-01  2.95743e-01 -1.01116e-01
       H -1.25813e+00  3.22968e-01 -4.31250e-01
       H -4.59698e-01 -5.73033e-01  1.02821e+00
       L  1.15009e+02  1.55973e+00  6.60819e+00
       L  1.07588e+00  3.47791e+01 -6.98789e+00
6
# CELL(abcABC):  459.05226   459.05226   459.05226    90.00000    90.00000    90.00000  Step:          53  Bead:       0 x_centroid{angstrom}  cell{atomic_unit}
       C -2.24356e-01 -1.41569e-01 -6.82190e-02
       O  8.35607e-01  2.92485e-01 -1.01262e-01
       H -1.31679e+00  2.62140e-01 -4.10587e-01
       H -4.69599e-01 -5.65691e-01  1.01196e+00
       L  1.17314e+02  1.76785e+00  6.39803e+00
       L  1.22958e+00  3.67639e+01 -6.84525e+00
6
# CELL(abcABC):  459.05226   459.05226   459.05226    90.00000    90.00000    90.00000  Step:          54  Bead:       0 x_centroid{angstrom}  cell{atomic_unit}
       C -2.26464e-01 -1.32954e-01 -6.69337e-02
       O  8.41145e-01  2.89438e-01 -1.01946e-01
       H -1.37066e+00  2.01262e-01 -3.94161e-01
       H -4.79841e-01 -5.60239e-01  9.91135e-01
       L  1.19685e+02  1.91553e+00  6.11762e+00
       L  1.31960e+00  3.87170e+01 -6.66998e+00
6
# CELL(abcABC):  459.05226   459.05226   459.05226    90.00000    90.00000    90.00000  Step:          55  Bead:       0 x_centroid{angstrom}  cell{atomic_unit}
       C -2.28193e-01 -1.24199e-01 -6.42873e-02
       O  8.46018e-01  2.86370e-01 -1.03131e-01
       H -1.42029e+00  1.40556e-01 -3.81859e-01
       H -4.88335e-01 -5.56284e-01  9.66167e-01
       L  1.22140e+02  2.04015e+00  5.78290e+00
       L  1.39843e+00  4.06288e+01 -6.45828e+00
6
# CELL(abcABC):  459.05226   459.05226   459.05226    90.00000    90.00000    90.00000  Step:          56  Bead:       0 x_centroid{angstrom}  cell{atomic_unit}
       C -2.29773e-01 -1.15495e-01 -6.02782e-02
       O  8.50223e-01  2.83342e-01 -1.04832e-01
       H -1.46308e+00  8.22722e-02 -3.75149e-01
       H -4.94840e-01 -5.54721e-01  9.38720e-01
       L  1.24644e+02  2.11085e+00  5.42272e+00
       L  1.38540e+00  4.25398e+01 -6.14779e+00
6
# CELL(abcABC):  459.05226   459.05226   459.05226    90.00000    90.00000    90.00000  Step:          57  Bead:       0 x_centroid{angstrom}  cell{atomic_unit}
       C -2.31559e-01 -1.06545e-01 -5.47560e-02
       O  8.54076e-01  2.80234e-01 -1.07240e-01
       H -1.49953e+00  2.65916e-02 -3.73408e-01
       H -4.99627e-01 -5.57458e-01  9.09393e-01
       L  1.27206e+02  2.19541e+00  5.00235e+00
       L  1.33168e+00  4.44896e+01 -5.73930e+00
6
# CELL(abcABC):  459.05226   459.05226   459.05226    90.00000    90.00000    90.00000  Step:          58  Bead:       0 x_centroid{angstrom}  cell{atomic_unit}
       C -2.33584e-01 -9.78096e-02 -4.86755e-02
       O  8.57519e-01  2.77328e-01 -1.09818e-01
       H -1.52759e+00 -2.67549e-02 -3.75970e-01
       H -5.03451e-01 -5.63127e-01  8.80461e-01
       L  1.29776e+02  2.21166e+00  4.56971e+00
       L  1.26321e+00  4.64054e+01 -5.35831e+00
6
# CELL(abcABC):  459.05226   459.05226   459.05226    90.00000    90.00000    90.00000  Step:          59  Bead:       0 x_centroid{angstrom}  cell{atomic_unit}
       C -2.36690e-01 -8.92317e-02 -4.16668e-02
       O  8.61070e-01  2.74726e-01 -1.12783e-01
       H -1.54623e+00 -7.84974e-02 -3.84368e-01
       H -5.05540e-01 -5.73383e-01  8.52394e-01
       L  1.32354e+02  2.25722e+00  4.11006e+00
       L  1.20401e+00  4.83376e+01 -4.88299e+00
6
# CELL(abcABC):  459.05226   459.05226   459.05226    90.00000    90.00000    90.00000  Step:          60  Bead:       0 x_centroid{angstrom}  cell{atomic_unit}
       C -2.41269e-01 -8.08570e-02 -3.39989e-02
       O  8.65039e-01  2.72258e-01 -1.16215e-01
       H -1.55486e+00 -1.26463e-01 -3.96017e-01
       H -5.06657e-01 -5.87074e-01  8.27120e-01
       L  1.34909e+02  2.29239e+00  3.65148e+00
       L  1.07725e+00  5.02345e+01 -4.36710e+00
6
# CELL(abcABC):  459.05226   459.05226   459.05226    90.00000    90.00000    90.00000  Step:          61  Bead:       0 x_centroid{angstrom}  cell{atomic_unit}
       C -2.47335e-01 -7.29391e-02 -2.62801e-02
       O  8.69433e-01  2.70160e-01 -1.19909e-01
       H -1.55261e+00 -1.69952e-01 -4.10886e-01
       H -5.07684e-01 -6.05669e-01  8.08596e-01
       L  1.37447e+02  2.31329e+00  3.15582e+00
       L  9.38047e-01  5.21070e+01 -3.78697e+00
6
# CELL(abcABC):  459.05226   459.05226   459.05226    90.00000    90.00000    90.00000  Step:          62  Bead:       0 x_centroid{angstrom}  cell{atomic_unit}
       C -2.54841e-01 -6.56666e-02 -1.82643e-02
       O  8.74145e-01  2.68396e-01 -1.23953e-01
       H -1.53883e+00 -2.07507e-01 -4.29119e-01
       H -5.08101e-01 -6.27726e-01  7.95451e-01
       L  1.39958e+02  2.24089e+00  2.61775e+00
       L  7.68289e-01  5.39392e+01 -3.13454e+00
6
# CELL(abcABC):  459.05226   459.05226   459.05226    90.00000    90.00000    90.00000  Step:          63  Bead:       0 x_centroid{angstrom}  cell{atomic_unit}
       C -2.63076e-01 -5.89526e-02 -1.04299e-02
       O  8.78725e-01  2.67014e-01 -1.28168e-01
       H -1.51485e+00 -2.39312e-01 -4.50071e-01
       H -5.07874e-01 -6.54915e-01  7.89849e-01
       L  1.42411e+02  2.19929e+00  2.08141e+00
       L  5.91713e-01  5.56782e+01 -2.42158e+00
6
# CELL(abcABC):  459.05226   459.05226   459.05226    90.00000    90.00000    90.00000  Step:          64  Bead:       0 x_centroid{angstrom}  cell{atomic_unit}
       C -2.71179e-01 -5.26729e-02 -2.42544e-03
       O  8.82544e-01  2.65823e-01 -1.32703e-01
       H -1.48271e+00 -2.66924e-01 -4.73831e-01
       H -5.05353e-01 -6.84154e-01  7.90123e-01
       L  1.44886e+02  2.16821e+00  1.47311e+00
       L  4.46640e-01  5.73936e+01 -1.63011e+00
6
# CELL(abcABC):  459.05226   459.05226   459.05226    90.00000    90.00000    90.00000  Step:          65  Bead:       0 x_centroid{angstrom}  cell{atomic_unit}
       C -2.78833e-01 -4.69500e-02  6.01344e-03
       O  8.85522e-01  2.64768e-01 -1.37619e-01
       H -1.44316e+00 -2.88750e-01 -5.01826e-01
       H -5.02256e-01 -7.14654e-01  7.95480e-01
       L  1.47439e+02  2.11492e+00  8.29058e-01
       L  2.66430e-01  5.90736e+01 -7.85660e-01
6
# CELL(abcABC):  459.05226   459.05226   459.05226    90.00000    90.00000    90.00000  Step:          66  Bead:       0 x_centroid{angstrom}  cell{atomic_unit}
       C -2.85565e-01 -4.21675e-02  1.47223e-02