6
# CELL(abcABC):  459.05226   459.05226   459.05226    90.00000    90.00000    90.00000  Step:           0  Bead:       0 x_centroid{angstrom}  cell{atomic_unit}
       C -3.39887e-01 -1.13437e-01  8.06659e-02
       O  8.43483e-01  2.62672e-01 -1.81512e-01
       H -7.35799e-02  8.16467e-01 -6.61432e-01
       H -4.30016e-01 -9.65701e-01  7.62278e-01
       L  6.13458e+01  0.00000e+00  0.00000e+00
       L  0.00000e+00  8.59064e+00  0.00000e+00
6
# CELL(abcABC):  459.05226   459.05226   459.05226    90.00000    90.00000    90.00000  Step:           1  Bead:       0 x_centroid{angstrom}  cell{atomic_unit}
       C -3.40470e-01 -1.10669e-01  8.18987e-02
       O  8.44572e-01  2.61035e-01 -1.81945e-01
       H -7.31806e-02  8.12291e-01 -6.74339e-01
       H -4.40419e-01 -9.68482e-01  7.67311e-01
       L  6.07748e+01 -2.14573e-01  6.28382e-01
       L -5.44782e-02  8.71926e+00 -5.27300e-01
6
# CELL(abcABC):  459.05226   459.05226   459.05226    90.00000    90.00000    90.00000  Step:           2  Bead:       0 x_centroid{angstrom}  cell{atomic_unit}
       C -3.41097e-01 -1.08126e-01  8.34306e-02
       O  8.45502e-01  2.59639e-01 -1.82705e-01
       H -7.15658e-02  8.07554e-01 -6.85940e-01
       H -4.48980e-01 -9.71869e-01  7.72650e-01
       L  6.02037e+01 -4.36692e-01  1.29274e+00
       L -9.62275e-02  8.88355e+00 -1.06508e+00
6
# CELL(abcABC):  459.05226   459.05226   459.05226    90.00000    90.00000    90.00000  Step:           3  Bead:       0 x_centroid{angstrom}  cell{atomic_unit}
       C -3.41605e-01 -1.05804e-01  8.50772e-02
       O  8.46136e-01  2.58368e-01 -1.83487e-01
       H -6.69239e-02  8.02510e-01 -6.97501e-01
       H -4.57314e-01 -9.74320e-01  7.76903e-01
       L  5.96786e+01 -6.32331e-01  2.00146e+00
       L -1.56508e-01  9.09953e+00 -1.59272e+00
6
# CELL(abcABC):  459.05226   459.05226   459.05226    90.00000    90.00000    90.00000  Step:           4  Bead:       0 x_centroid{angstrom}  cell{atomic_unit}
       C -3.41880e-01 -1.03582e-01  8.67472e-02
       O  8.46218e-01  2.57003e-01 -1.84296e-01
       H -5.91764e-02  7.97449e-01 -7.07864e-01
       H -4.62796e-01 -9.74048e-01  7.80109e-01
       L  5.92357e+01 -8.61600e-01  2.63082e+00
       L -2.49530e-01  9.26374e+00 -2.03817e+00
6
# CELL(abcABC):  459.05226   459.05226   459.05226    90.00000    90.00000    90.00000  Step:           5  Bead:       0 x_centroid{angstrom}  cell{atomic_unit}
       C -3.42114e-01 -1.01479e-01  8.83379e-02
       O  8.46217e-01  2.55656e-01 -1.85024e-01
       H -5.00356e-02  7.91461e-01 -7.17282e-01
       H -4.68863e-01 -9.71718e-01  7.81997e-01
       L  5.88461e+01 -1.07195e+00  3.25390e+00
       L -3.46964e-01  9.46178e+00 -2.41446e+00
6
# CELL(abcABC):  459.05226   459.05226   459.05226    90.00000    90.00000    90.00000  Step:           6  Bead:       0 x_centroid{angstrom}  cell{atomic_unit}
       C -3.42385e-01 -9.94966e-02  9.00492e-02
       O  8.46338e-01  2.54262e-01 -1.85778e-01
       H -4.26495e-02  7.84539e-01 -7.25762e-01
       H -4.74700e-01 -9.66236e-01  7.81896e-01
       L  5.84529e+01 -1.32878e+00  3.88571e+00
       L -4.15635e-01  9.60297e+00 -2.77615e+00
6
# CELL(abcABC):  459.05226   459.05226   459.05226    90.00000    90.00000    90.00000  Step:           7  Bead:       0 x_centroid{angstrom}  cell{atomic_unit}
       C -3.42904e-01 -9.76292e-02  9.16850e-02
       O  8.46788e-01  2.52910e-01 -1.86411e-01
       H -3.76799e-02  7.76152e-01 -7.32976e-01
       H -4.80314e-01 -9.58529e-01  7.79541e-01
       L  5.79626e+01 -1.61279e+00  4.43189e+00
       L -4.94127e-01  9.67973e+00 -3.09304e+00
6
# CELL(abcABC):  459.05226   459.05226   459.05226    90.00000    90.00000    90.00000  Step:           8  Bead:       0 x_centroid{angstrom}  cell{atomic_unit}
       C -3.43598e-01 -9.56819e-02  9.37007e-02
       O  8.47520e-01  2.51504e-01 -1.87220e-01
       H -3.46103e-02  7.67399e-01 -7.40500e-01
       H -4.86442e-01 -9.50571e-01  7.75756e-01
       L  5.74669e+01 -1.82911e+00  4.95063e+00
       L -5.51275e-01  9.75729e+00 -3.36519e+00
6
# CELL(abcABC):  459.05226   459.05226   459.05226    90.00000    90.00000    90.00000  Step:           9  Bead:       0 x_centroid{angstrom}  cell{atomic_unit}
       C -3.44566e-01 -9.36300e-02  9.54536e-02
       O  8.48472e-01  2.49919e-01 -1.87723e-01
       H -3.22615e-02  7.59790e-01 -7.49436e-01
       H -4.92015e-01 -9.42185e-01  7.71656e-01
       L  5.68868e+01 -2.02470e+00  5.42571e+00
       L -6.09098e-01  9.81639e+00 -3.60889e+00
6
# CELL(abcABC):  459.05226   459.05226   459.05226    90.00000    90.00000    90.00000  Step:          10  Bead:       0 x_centroid{angstrom}  cell{atomic_unit}
       C -3.45439e-01 -9.13878e-02  9.71862e-02
       O  8.49174e-01  2.48077e-01 -1.88288e-01
       H -2.77399e-02  7.54232e-01 -7.58312e-01
       H -4.96948e-01 -9.34046e-01  7.68747e-01
       L  5.63094e+01 -2.21242e+00  5.84140e+00
       L -6.24098e-01  9.88491e+00 -3.79881e+00
6
# CELL(abcABC):  459.05226   459.05226   459.05226    90.00000    90.00000    90.00000  Step:          11  Bead:       0 x_centroid{angstrom}  cell{atomic_unit}
       C -3.46233e-01 -8.91625e-02  9.87432e-02
       O  8.49647e-01  2.46139e-01 -1.88825e-01
       H -2.14207e-02  7.51131e-01 -7.67498e-01
       H -5.01016e-01 -9.26623e-01  7.67773e-01
       L  5.57667e+01 -2.37943e+00  6.20350e+00
       L -6.34055e-01  9.92662e+00 -3.93902e+00
6
# CELL(abcABC):  459.05226   459.05226   459.05226    90.00000    90.00000    90.00000  Step:          12  Bead:       0 x_centroid{angstrom}  cell{atomic_unit}
       C -3.46939e-01 -8.64994e-02  1.00001e-01
       O  8.49758e-01  2.43857e-01 -1.89297e-01
       H -1.23819e-02  7.49487e-01 -7.76071e-01
       H -5.03078e-01 -9.20450e-01  7.68755e-01
       L  5.51771e+01 -2.51822e+00  6.50500e+00
       L -6.31711e-01  9.98630e+00 -4.07928e+00
6
# CELL(abcABC):  459.05226   459.05226   459.05226    90.00000    90.00000    90.00000  Step:          13  Bead:       0 x_centroid{angstrom}  cell{atomic_unit}
       C -3.47870e-01 -8.37858e-02  1.01008e-01
       O  8.49958e-01  2.41511e-01 -1.89869e-01
       H -2.60842e-03  7.48591e-01 -7.82515e-01
       H -5.04595e-01 -9.14689e-01  7.72240e-01
       L  5.45267e+01 -2.57465e+00  6.71100e+00
       L -6.22976e-01  1.01025e+01 -4.18726e+00
6
# CELL(abcABC):  459.05226   459.05226   459.05226    90.00000    90.00000    90.00000  Step:          14  Bead:       0 x_centroid{angstrom}  cell{atomic_unit}
       C -3.48898e-01 -8.12998e-02  1.01920e-01
       O  8.50393e-01  2.39336e-01 -1.90614e-01
       H  4.67398e-03  7.48353e-01 -7.87334e-01
       H -5.06137e-01 -9.09591e-01  7.78026e-01
       L  5.38054e+01 -2.61330e+00  6.81023e+00
       L -6.24397e-01  1.02378e+01 -4.29553e+00
6
# CELL(abcABC):  459.05226   459.05226   459.05226    90.00000    90.00000    90.00000  Step:          15  Bead:       0 x_centroid{angstrom}  cell{atomic_unit}
       C -3.50255e-01 -7.86176e-02  1.02793e-01
       O  8.51240e-01  2.37066e-01 -1.91520e-01
       H  8.94535e-03  7.47751e-01 -7.90221e-01
       H -5.07270e-01 -9.04944e-01  7.84944e-01
       L  5.30271e+01 -2.68032e+00  6.81909e+00
       L -6.12641e-01  1.03522e+01 -4.40111e+00
6
# CELL(abcABC):  459.05226   459.05226   459.05226    90.00000    90.00000    90.00000  Step:          16  Bead:       0 x_centroid{angstrom}  cell{atomic_unit}
       C -3.51996e-01 -7.57829e-02  1.03375e-01
       O  8.52520e-01  2.34793e-01 -1.92480e-01
       H  1.15963e-02  7.46113e-01 -7.90171e-01
       H -5.09037e-01 -9.01045e-01  7.93242e-01
       L  5.22041e+01 -2.74305e+00  6.79195e+00
       L -6.01270e-01  1.04620e+01 -4.46538e+00
6
# CELL(abcABC):  459.05226   459.05226   459.05226    90.00000    90.00000    90.00000  Step:          17  Bead:       0 x_centroid{angstrom}  cell{atomic_unit}
       C -3.54098e-01 -7.27491e-02  1.03984e-01
       O  8.54066e-01  2.32365e-01 -1.93601e-01
       H  1.26535e-02  7.43306e-01 -7.89262e-01
       H -5.09088e-01 -8.95865e-01  8.02890e-01
       L  5.13049e+01 -2.81403e+00  6.74710e+00
       L -6.20381e-01  1.05779e+01 -4.46459e+00
6
# CELL(abcABC):  459.05226   459.05226   459.05226    90.00000    90.00000    90.00000  Step:          18  Bead:       0 x_centroid{angstrom}  cell{atomic_unit}
       C -3.56542e-01 -6.97906e-02  1.04585e-01
       O  8.55719e-01  2.29997e-01 -1.94910e-01
       H  1.55008e-02  7.39225e-01 -7.85798e-01
       H -5.08600e-01 -8.89492e-01  8.13111e-01
       L  5.04482e+01 -2.84767e+00  6.59203e+00
       L -6.10156e-01  1.06776e+01 -4.43181e+00
6
# CELL(abcABC):  459.05226   459.05226   459.05226    90.00000    90.00000    90.00000  Step:          19  Bead:       0 x_centroid{angstrom}  cell{atomic_unit}
       C -3.59043e-01 -6.71251e-02  1.05328e-01
       O  8.57114e-01  2.28010e-01 -1.96450e-01
       H  2.24769e-02  7.34206e-01 -7.80229e-01
       H -5.07448e-01 -8.84737e-01  8.23203e-01
       L  4.95697e+01 -2.85899e+00  6.35922e+00
       L -6.07772e-01  1.07919e+01 -4.32228e+00
6
# CELL(abcABC):  459.05226   459.05226   459.05226    90.00000    90.00000    90.00000  Step:          20  Bead:       0 x_centroid{angstrom}  cell{atomic_unit}
       C -3.61684e-01 -6.44434e-02  1.06130e-01
       O  8.58471e-01  2.26040e-01 -1.98068e-01
       H  3.21194e-02  7.27308e-01 -7.74319e-01
       H -5.06655e-01 -8.78614e-01  8.33499e-01
       L  4.86888e+01 -2.83195e+00  6.06585e+00
       L -6.38642e-01  1.09021e+01 -4.17120e+00
6
# CELL(abcABC):  459.05226   459.05226   459.05226    90.00000    90.00000    90.00000  Step:          21  Bead:       0 x_centroid{angstrom}  cell{atomic_unit}
       C -3.64767e-01 -6.18399e-02  1.07277e-01
       O  8.59896e-01  2.23910e-01 -1.99906e-01
       H  4.50485e-02  7.21796e-01 -7.69086e-01
       H -5.05001e-01 -8.70397e-01  8.43843e-01
       L  4.78120e+01 -2.77912e+00  5.72862e+00
       L -6.26965e-01  1.10150e+01 -3.96171e+00
6
# CELL(abcABC):  459.05226   459.05226   459.05226    90.00000    90.00000    90.00000  Step:          22  Bead:       0 x_centroid{angstrom}  cell{atomic_unit}
       C -3.68201e-01 -5.93613e-02  1.08691e-01
       O  8.61518e-01  2.21828e-01 -2.01834e-01
       H  5.86421e-02  7.15946e-01 -7.64849e-01
       H -5.02942e-01 -8.61150e-01  8.53433e-01
       L  4.69123e+01 -2.70698e+00  5.29613e+00
       L -6.03303e-01  1.11421e+01 -3.68410e+00
6
# CELL(abcABC):  459.05226   459.05226   459.05226    90.00000    90.00000    90.00000  Step:          23  Bead:       0 x_centroid{angstrom}  cell{atomic_unit}
       C -3.71827e-01 -5.70694e-02  1.10402e-01
       O  8.63283e-01  2.19771e-01 -2.03694e-01
       H  7.23256e-02  7.11105e-01 -7.64681e-01
       H -5.00935e-01 -8.51087e-01  8.62541e-01
       L  4.59846e+01 -2.61250e+00  4.78963e+00
       L -5.97496e-01  1.12804e+01 -3.43165e+00
6
# CELL(abcABC):  459.05226   459.05226   459.05226    90.00000    90.00000    90.00000  Step:          24  Bead:       0 x_centroid{angstrom}  cell{atomic_unit}
       C -3.75960e-01 -5.51192e-02  1.12823e-01
       O  8.65418e-01  2.17802e-01 -2.05820e-01
       H  8.53454e-02  7.06683e-01 -7.67705e-01
       H -4.98089e-01 -8.38798e-01  8.70601e-01
       L  4.50381e+01 -2.50132e+00  4.21618e+00
       L -5.66990e-01  1.14473e+01 -3.10311e+00
6
# CELL(abcABC):  459.05226   459.05226   459.05226    90.00000    90.00000    90.00000  Step:          25  Bead:       0 x_centroid{angstrom}  cell{atomic_unit}
       C -3.80695e-01 -5.34291e-02  1.15283e-01
       O  8.68160e-01  2.15819e-01 -2.07830e-01
       H  9.67769e-02  7.03684e-01 -7.72462e-01
       H -4.96120e-01 -8.24575e-01  8.78099e-01
       L  4.40369e+01 -2.44492e+00  3.62162e+00
       L -4.93563e-01  1.15941e+01 -2.78362e+00
6
# CELL(abcABC):  459.05226   459.05226   459.05226    90.00000    90.00000    90.00000  Step:          26  Bead:       0 x_centroid{angstrom}  cell{atomic_unit}
       C -3.85739e-01 -5.18971e-02  1.17974e-01
       O  8.71104e-01  2.13785e-01 -2.09971e-01
       H  1.08031e-01  7.03356e-01 -7.78503e-01
       H -4.93465e-01 -8.10333e-01  8.86230e-01
       L  4.29595e+01 -2.34922e+00  3.00226e+00
       L -3.94189e-01  1.17025e+01 -2.48193e+00
6
# CELL(abcABC):  459.05226   459.05226   459.05226    90.00000    90.00000    90.00000  Step:          27  Bead:       0 x_centroid{angstrom}  cell{atomic_unit}
       C -3.91019e-01 -5.05377e-02  1.21016e-01
       O  8.74023e-01  2.11739e-01 -2.12411e-01
       H  1.21635e-01  7.04642e-01 -7.84806e-01
       H -4.89921e-01 -7.95411e-01  8.95228e-01
       L  4.18219e+01 -2.23023e+00  2.37047e+00
       L -2.92673e-01  1.17211e+01 -2.23658e+00
6
# CELL(abcABC):  459.05226   459.05226   459.05226    90.00000    90.00000    90.00000  Step:          28  Bead:       0 x_centroid{angstrom}  cell{atomic_unit}
       C -3.96405e-01 -4.91501e-02  1.24302e-01
       O  8.76944e-01  2.09703e-01 -2.14979e-01
       H  1.37526e-01  7.06298e-01 -7.92368e-01
       H -4.87408e-01 -7.81417e-01  9.04592e-01
       L  4.06411e+01 -2.07489e+00  1.74442e+00
       L -2.17457e-01  1.18084e+01 -1.98635e+00
6
# CELL(abcABC):  459.05226   459.05226   459.05226    90.00000    90.00000    90.00000  Step:          29  Bead:       0 x_centroid{angstrom}  cell{atomic_unit}
       C -4.02511e-01 -4.78357e-02  1.28017e-01
       O  8.80047e-01  2.07861e-01 -2.17778e-01
       H  1.57218e-01  7.07159e-01 -8.00476e-01
       H -4.82928e-01 -7.68855e-01  9.13070e-01
       L  3.94028e+01 -1.88384e+00  1.06642e+00
       L -1.86325e-01  1.18984e+01 -1.67366e+00
6
# CELL(abcABC):  459.05226   459.05226   459.05226    90.00000    90.00000    90.00000  Step:          30  Bead:       0 x_centroid{angstrom}  cell{atomic_unit}
       C -4.08845e-01 -4.66557e-02  1.32082e-01
       O  8.83115e-01  2.06303e-01 -2.20826e-01
       H  1.81131e-01  7.06569e-01 -8.09416e-01
       H -4.79400e-01 -7.57738e-01  9.22154e-01
       L  3.81173e+01 -1.68571e+00  3.33769e-01
       L -1.23380e-01  1.19586e+01 -1.31625e+00
6
# CELL(abcABC):  459.05226   459.05226   459.05226    90.00000    90.00000    90.00000  Step:          31  Bead:       0 x_centroid{angstrom}  cell{atomic_unit}
       C -4.15234e-01 -4.56800e-02  1.36513e-01
       O  8.85903e-01  2.05110e-01 -2.24024e-01
       H  2.10387e-01  7.04089e-01 -8.19674e-01
       H -4.76127e-01 -7.48087e-01  9.30543e-01
       L  3.68331e+01 -1.42597e+00 -3.49815e-01
       L -4.84174e-02  1.19513e+01 -9.30948e-01
6
# CELL(abcABC):  459.05226   459.05226   459.05226    90.00000    90.00000    90.00000  Step:          32  Bead:       0 x_centroid{angstrom}  cell{atomic_unit}
       C -4.21808e-01 -4.48632e-02  1.41425e-01
       O  8.88543e-01  2.04157e-01 -2.27585e-01
       H  2.43697e-01  7.00590e-01 -8.30187e-01
       H -4.72302e-01 -7.39300e-01  9.39226e-01
       L  3.55343e+01 -1.14169e+00 -1.03882e+00
       L -2.20181e-02  1.18637e+01 -5.66491e-01
6
# CELL(abcABC):  459.05226   459.05226   459.05226    90.00000    90.00000    90.00000  Step:          33  Bead:       0 x_centroid{angstrom}  cell{atomic_unit}
       C -4.28663e-01 -4.41553e-02  1.46728e-01
       O  8.91298e-01  2.03562e-01 -2.31364e-01
       H  2.80192e-01  6.94843e-01 -8.42343e-01
       H -4.70194e-01 -7.32689e-01  9.48330e-01
       L  3.42846e+01 -7.88916e-01 -1.68272e+00
       L  3.83601e-02  1.17816e+01 -2.22254e-01
6
# CELL(abcABC):  459.05226   459.05226   459.05226    90.00000    90.00000    90.00000  Step:          34  Bead:       0 x_centroid{angstrom}  cell{atomic_unit}
       C -4.36295e-01 -4.34336e-02  1.52108e-01
       O  8.94426e-01  2.03059e-01 -2.35169e-01
       H  3.21168e-01  6.89140e-01 -8.56063e-01
       H -4.69219e-01 -7.27806e-01  9.58532e-01
       L  3.29817e+01 -3.48976e-01 -2.32946e+00
       L  1.31916e-01  1.17268e+01  1.00386e-01
6
# CELL(abcABC):  459.05226   459.05226   459.05226    90.00000    90.00000    90.00000  Step:          35  Bead:       0 x_centroid{angstrom}  cell{atomic_unit}
       C -4.44368e-01 -4.28976e-02  1.57959e-01
       O  8.97701e-01  2.02723e-01 -2.39157e-01
       H  3.65501e-01  6.84369e-01 -8.71849e-01
       H -4.68630e-01 -7.24277e-01  9.68064e-01
       L  3.15973e+01  9.99642e-02 -2.96276e+00
       L  1.96226e-01  1.16158e+01  4.01420e-01
6
# CELL(abcABC):  459.05226   459.05226   459.05226    90.00000    90.00000    90.00000  Step:          36  Bead:       0 x_centroid{angstrom}  cell{atomic_unit}
       C -4.52536e-01 -4.22514e-02  1.63789e-01
       O  9.00840e-01  2.02358e-01 -2.42962e-01
       H  4.12963e-01  6.81033e-01 -8.91722e-01
       H -4.67867e-01 -7.23020e-01  9.79065e-01
       L  3.01353e+01  5.33388e-01 -3.57020e+00
       L  3.34635e-01  1.15055e+01  6.35362e-01
6
# CELL(abcABC):  459.05226   459.05226   459.05226    90.00000    90.00000    90.00000  Step:          37  Bead:       0 x_centroid{angstrom}  cell{atomic_unit}
       C -4.60646e-01 -4.15910e-02  1.69823e-01
       O  9.03831e-01  2.02002e-01 -2.46691e-01
       H  4.62528e-01  6.80533e-01 -9.15907e-01
       H -4.67511e-01 -7.24928e-01  9.90725e-01
       L  2.85787e+01  9.77016e-01 -4.14490e+00
       L  5.08434e-01  1.14179e+01  8.93392e-01
6
# CELL(abcABC):  459.05226   459.05226   459.05226    90.00000    90.00000    90.00000  Step:          38  Bead:       0 x_centroid{angstrom}  cell{atomic_unit}
       C -4.69010e-01 -4.06824e-02  1.75820e-01
       O  9.07032e-01  2.01380e-01 -2.50127e-01
       H  5.12120e-01  6.82134e-01 -9.44835e-01
       H -4.67478e-01 -7.27691e-01  1.00291e+00
       L  2.69398e+01  1.45941e+00 -4.69009e+00
       L  7.10125e-01  1.13072e+01  1.12989e+00
6
# CELL(abcABC):  459.05226   459.05226   459.05226    90.00000    90.00000    90.00000  Step:          39  Bead:       0 x_centroid{angstrom}  cell{atomic_unit}
       C -4.77697e-01 -3.97334e-02  1.82147e-01
       O  9.10431e-01  2.00698e-01 -2.53704e-01
       H  5.61284e-01  6.84938e-01 -9.75619e-01
       H -4.66219e-01 -7.31155e-01  1.01522e+00
       L  2.52098e+01  1.91956e+00 -5.22402e+00
       L  8.86794e-01  1.11753e+01  1.37323e+00
6
# CELL(abcABC):  459.05226   459.05226   459.05226    90.00000    90.00000    90.00000  Step:          40  Bead:       0 x_centroid{angstrom}  cell{atomic_unit}
       C -4.85718e-01 -3.84399e-02  1.88350e-01
       O  9.13466e-01  1.99727e-01 -2.57098e-01
       H  6.10642e-01  6.88711e-01 -1.00772e+00
       H -4.67293e-01 -7.35065e-01  1.02745e+00
       L  2.34343e+01  2.36264e+00 -5.73365e+00
       L  1.02252e+00  1.09968e+01  1.59176e+00
6
# CELL(abcABC):  459.05226   459.05226   459.05226    90.00000    90.00000    90.00000  Step:          41  Bead:       0 x_centroid{angstrom}  cell{atomic_unit}
       C -4.93376e-01 -3.70700e-02  1.94370e-01
       O  9.16262e-01  1.98870e-01 -2.60389e-01
       H  6.58809e-01  6.90552e-01 -1.03949e+00
       H -4.67645e-01 -7.39788e-01  1.03984e+00
       L  2.15997e+01  2.81368e+00 -6.16331e+00
       L  1.12806e+00  1.08226e+01  1.78985e+00
6
# CELL(abcABC):  459.05226   459.05226   459.05226    90.00000    90.00000    90.00000  Step:          42  Bead:       0 x_centroid{angstrom}  cell{atomic_unit}
       C -5.00866e-01 -3.59192e-02  2.00424e-01
       O  9.18967e-01  1.98281e-01 -2.63648e-01
       H  7.06360e-01  6.91141e-01 -1.07029e+00
       H -4.67909e-01 -7.44866e-01  1.05035e+00
       L  1.97495e+01  3.23125e+00 -6.49524e+00
       L  1.19820e+00  1.06297e+01  1.93154e+00
6
# CELL(abcABC):  459.05226   459.05226   459.05226    90.00000    90.00000    90.00000  Step:          43  Bead:       0 x_centroid{angstrom}  cell{atomic_unit}
       C -5.07776e-01 -3.44630e-02  2.06319e-01
       O  9.21195e-01  1.97545e-01 -2.66835e-01
       H  7.51620e-01  6.90558e-01 -1.09839e+00
       H -4.65184e-01 -7.50002e-01  1.05882e+00
       L  1.78416e+01  3.58293e+00 -6.66516e+00
       L  1.24747e+00  1.03773e+01  2.02545e+00
6
# CELL(abcABC):  459.05226   459.05226   459.05226    90.00000    90.00000    90.00000  Step:          44  Bead:       0 x_centroid{angstrom}  cell{atomic_unit}
       C -5.14034e-01 -3.32002e-02  2.12241e-01
       O  9.22984e-01  1.96990e-01 -2.70059e-01
       H  7.95105e-01  6.87706e-01 -1.12354e+00
       H -4.61441e-01 -7.53397e-01  1.06458e+00
       L  1.58514e+01  3.89460e+00 -6.76191e+00
       L  1.29534e+00  1.00989e+01  2.10292e+00
6
# CELL(abcABC):  459.05226   459.05226   459.05226    90.00000    90.00000    90.00000  Step:          45  Bead:       0 x_centroid{angstrom}  cell{atomic_unit}
       C -5.19813e-01 -3.16943e-02  2.17833e-01
       O  9.24436e-01  1.96373e-01 -2.73296e-01
       H  8.37421e-01  6.81570e-01 -1.14363e+00
       H -4.56865e-01 -7.55367e-01  1.06941e+00
       L  1.38768e+01  4.15070e+00 -6.80676e+00
       L  1.28673e+00  9.74659e+00  2.15935e+00
6
# CELL(abcABC):  459.05226   459.05226   459.05226    90.00000    90.00000    90.00000  Step:          46  Bead:       0 x_centroid{angstrom}  cell{atomic_unit}
       C -5.25255e-01 -2.98707e-02  2.22891e-01
       O  9.25577e-01  1.95570e-01 -2.76311e-01
       H  8.78968e-01  6.72334e-01 -1.15823e+00
       H -4.50589e-01 -7.55059e-01  1.07159e+00
       L  1.18703e+01  4.40596e+00 -6.78442e+00
       L  1.31394e+00  9.38812e+00  2.18894e+00
6
# CELL(abcABC):  459.05226   459.05226   459.05226    90.00000    90.00000    90.00000  Step:          47  Bead:       0 x_centroid{angstrom}  cell{atomic_unit}
       C -5.29842e-01 -2.78407e-02  2.27373e-01
       O  9.26165e-01  1.94651e-01 -2.79234e-01
       H  9.18120e-01  6.60375e-01 -1.16681e+00
       H -4.43296e-01 -7.52602e-01  1.07310e+00
       L  9.82846e+00  4.61778e+00 -6.67097e+00
       L  1.30142e+00  9.00784e+00  2.14292e+00
6
# CELL(abcABC):  459.05226   459.05226   459.05226    90.00000    90.00000    90.00000  Step:          48  Bead:       0 x_centroid{angstrom}  cell{atomic_unit}
       C -5.33998e-01 -2.59489e-02  2.31098e-01
       O  9.26467e-01  1.93753e-01 -2.81962e-01
       H  9.54636e-01  6.47606e-01 -1.16961e+00
       H -4.33945e-01 -7.48023e-01  1.07478e+00
       L  7.76545e+00  4.75484e+00 -6.49242e+00
       L  1.24864e+00  8.66724e+00  2.05685e+00
6
# CELL(abcABC):  459.05226   459.05226   459.05226    90.00000    90.00000    90.00000  Step:          49  Bead:       0 x_centroid{angstrom}  cell{atomic_unit}
       C -5.37592e-01 -2.39160e-02  2.34237e-01
       O  9.26334e-01  1.92541e-01 -2.84429e-01
       H  9.88010e-01  6.35655e-01 -1.16789e+00
       H -4.21191e-01 -7.40924e-01  1.07480e+00
       L  5.63329e+00  4.78238e+00 -6.26105e+00
       L  1.22240e+00  8.41321e+00  1.85383e+00
6
# CELL(abcABC):  459.05226   459.05226   459.05226    90.00000    90.00000    90.00000  Step:          50  Bead:       0 x_centroid{angstrom}  cell{atomic_unit}
       C -5.40407e-01 -2.17137e-02  2.36768e-01
       O  9.25736e-01  1.91010e-01 -2.86832e-01
       H  1.01609e+00  6.25185e-01 -1.16107e+00
       H -4.05115e-01 -7.32290e-01  1.07590e+00
       L  3.54977e+00  4.74953e+00 -5.97713e+00
       L  1.22744e+00  8.25174e+00  1.69377e+00
6
# CELL(abcABC):  459.05226   459.05226   459.05226    90.00000    90.00000    90.00000  Step:          51  Bead:       0 x_centroid{angstrom}  cell{atomic_unit}
       C -5.42391e-01 -1.93839e-02  2.38567e-01
       O  9.24629e-01  1.89023e-01 -2.89070e-01
       H  1.03965e+00  6.17158e-01 -1.14990e+00
       H -3.86284e-01 -7.20430e-01  1.07876e+00
       L  1.38550e+00  4.70791e+00 -5.68184e+00
       L  1.23130e+00  8.16991e+00  1.48583e+00
6
# CELL(abcABC):  459.05226   459.05226   459.05226    90.00000    90.00000    90.00000  Step:          52  Bead:       0 x_centroid{angstrom}  cell{atomic_unit}
       C -5.43602e-01 -1.69049e-02  2.39803e-01
       O  9.23011e-01  1.86542e-01 -2.91259e-01
       H  1.05973e+00  6.12153e-01 -1.13455e+00
       H -3.65049e-01 -7.05546e-01  1.08336e+00
       L -7.88733e-01  4.63263e+00 -5.35218e+00
       L  1.20460e+00  8.19986e+00  1.29799e+00
6
# CELL(abcABC):  459.05226   459.05226   459.05226    90.00000    90.00000    90.00000  Step:          53  Bead:       0 x_centroid{angstrom}  cell{atomic_unit}
       C -5.43945e-01 -1.43042e-02  2.40196e-01
       O  9.21022e-01  1.83766e-01 -2.92950e-01
       H  1.07500e+00  6.08823e-01 -1.11832e+00
       H -3.43431e-01 -6.89096e-01  1.08921e+00
       L -2.99319e+00  4.47086e+00 -4.97906e+00
       L  1.15559e+00  8.26343e+00  1.09505e+00
6
# CELL(abcABC):  459.05226   459.05226   459.05226    90.00000    90.00000    90.00000  Step:          54  Bead:       0 x_centroid{angstrom}  cell{atomic_unit}
       C -5.43683e-01 -1.13635e-02  2.39733e-01
       O  9.18736e-01  1.80593e-01 -2.94010e-01
       H  1.08724e+00  6.07932e-01 -1.10232e+00
       H -3.21299e-01 -6.72787e-01  1.09544e+00
       L -5.17650e+00  4.20864e+00 -4.59776e+00
       L  1.10873e+00  8.34823e+00  8.96585e-01
6
# CELL(abcABC):  459.05226   459.05226   459.05226    90.00000    90.00000    90.00000  Step:          55  Bead:       0 x_centroid{angstrom}  cell{atomic_unit}
       C -5.42360e-01 -8.24418e-03  2.38555e-01
       O  9.15989e-01  1.77055e-01 -2.94344e-01
       H  1.09403e+00  6.09554e-01 -1.08855e+00
       H -2.99045e-01 -6.55361e-01  1.10088e+00
       L -7.33953e+00  3.96142e+00 -4.19067e+00
       L  1.07220e+00  8.51247e+00  7.23643e-01
6
# CELL(abcABC):  459.05226   459.05226   459.05226    90.00000    90.00000    90.00000  Step:          56  Bead:       0 x_centroid{angstrom}  cell{atomic_unit}
       C -5.40318e-01 -4.93715e-03  2.37100e-01
       O  9.12987e-01  1.73279e-01 -2.94180e-01
       H  1.09631e+00  6.11882e-01 -1.07781e+00
       H -2.76782e-01 -6.37080e-01  1.10476e+00
       L -9.57811e+00  3.68161e+00 -3.80206e+00
       L  1.03676e+00  8.64137e+00  5.25493e-01
6
# CELL(abcABC):  459.05226   459.05226   459.05226    90.00000    90.00000    90.00000  Step:          57  Bead:       0 x_centroid{angstrom}  cell{atomic_unit}
       C -5.37366e-01 -1.58124e-03  2.35920e-01
       O  9.09682e-01  1.69459e-01 -2.93656e-01
       H  1.09433e+00  6.14183e-01 -1.07262e+00
       H -2.56278e-01 -6.18658e-01  1.10521e+00
       L -1.17929e+01  3.39405e+00 -3.35744e+00
       L  9.81214e-01  8.78474e+00  2.89131e-01
6
# CELL(abcABC):  459.05226   459.05226   459.05226    90.00000    90.00000    90.00000  Step:          58  Bead:       0 x_centroid{angstrom}  cell{atomic_unit}
       C -5.33588e-01  2.02584e-03  2.34591e-01
       O  9.06010e-01  1.65421e-01 -2.92533e-01
       H  1.08845e+00  6.16962e-01 -1.07129e+00
       H -2.35925e-01 -6.00196e-01  1.10178e+00
       L -1.39714e+01  3.11353e+00 -2.87589e+00
       L  9.48316e-01  8.83264e+00  2.79855e-02
6
# CELL(abcABC):  459.05226   459.05226   459.05226    90.00000    90.00000    90.00000  Step:          59  Bead:       0 x_centroid{angstrom}  cell{atomic_unit}
       C -5.29068e-01  5.58199e-03  2.32998e-01
       O  9.02241e-01  1.61684e-01 -2.90762e-01
       H  1.07792e+00  6.17597e-01 -1.07428e+00
       H -2.18181e-01 -5.83692e-01  1.09549e+00
       L -1.61903e+01  2.78440e+00 -2.33719e+00
       L  8.83356e-01  8.78994e+00 -2.73575e-01
6
# CELL(abcABC):  459.05226   459.05226   459.05226    90.00000    90.00000    90.00000  Step:          60  Bead:       0 x_centroid{angstrom}  cell{atomic_unit}
       C -5.23778e-01  9.06981e-03  2.31216e-01
       O  8.98467e-01  1.58305e-01 -2.88502e-01
       H  1.06166e+00  6.15536e-01 -1.08025e+00
       H -2.03823e-01 -5.69188e-01  1.08670e+00
       L -1.84340e+01  2.31904e+00 -1.80185e+00
       L  8.50778e-01  8.59376e+00 -5.48754e-01
6
# CELL(abcABC):  459.05226   459.05226   459.05226    90.00000    90.00000    90.00000  Step:          61  Bead:       0 x_centroid{angstrom}  cell{atomic_unit}
       C -5.17932e-01  1.25257e-02  2.29919e-01
       O  8.94669e-01  1.55403e-01 -2.86251e-01
       H  1.04213e+00  6.09097e-01 -1.08953e+00
       H -1.92417e-01 -5.57441e-01  1.07557e+00
       L -2.06472e+01  1.85079e+00 -1.26758e+00
       L  7.82050e-01  8.28150e+00 -8.40619e-01
6
# CELL(abcABC):  459.05226   459.05226   459.05226    90.00000    90.00000    90.00000  Step:          62  Bead:       0 x_centroid{angstrom}  cell{atomic_unit}
       C -5.11747e-01  1.61522e-02  2.28527e-01
       O  8.91073e-01  1.52861e-01 -2.83641e-01
       H  1.01811e+00  5.98018e-01 -1.10056e+00
       H -1.83748e-01 -5.48736e-01  1.06160e+00
       L -2.28858e+01  1.35621e+00 -6.95985e-01
       L  7.13988e-01  7.88285e+00 -1.10681e+00
6
# CELL(abcABC):  459.05226   459.05226   459.05226    90.00000    90.00000    90.00000  Step:          63  Bead:       0 x_centroid{angstrom}  cell{atomic_unit}
       C -5.04877e-01  2.04631e-02  2.26852e-01
       O  8.87277e-01  1.50403e-01 -2.80847e-01
       H  9.91072e-01  5.82675e-01 -1.11296e+00
       H -1.77062e-01 -5.45213e-01  1.04944e+00
       L -2.51858e+01  8.55905e-01 -1.27640e-01
       L  6.79832e-01  7.39737e+00 -1.39823e+00
6
# CELL(abcABC):  459.05226   459.05226   459.05226    90.00000    90.00000    90.00000  Step:          64  Bead:       0 x_centroid{angstrom}  cell{atomic_unit}
       C -4.97478e-01  2.52203e-02  2.24932e-01
       O  8.83366e-01  1.48185e-01 -2.77857e-01
       H  9.61828e-01  5.63461e-01 -1.12674e+00
       H -1.72606e-01 -5.46933e-01  1.03847e+00
       L -2.75171e+01  3.92430e-01  4.33221e-01
       L  6.18210e-01  6.87274e+00 -1.64364e+00
6
# CELL(abcABC):  459.05226   459.05226   459.05226    90.00000    90.00000    90.00000  Step:          65  Bead:       0 x_centroid{angstrom}  cell{atomic_unit}
       C -4.89480e-01  3.00312e-02  2.22641e-01
       O  8.79275e-01  1.46264e-01 -2.74776e-01
       H  9.30322e-01  5.41718e-01 -1.14127e+00
       H -1.70109e-01 -5.51457e-01  1.03120e+00
       L -2.98774e+01 -1.05118e-01  1.03735e+00
       L  4.99772e-01  6.30768e+00 -1.89756e+00
6
# CELL(abcABC):  459.05226   459.05226   459.05226    90.00000    90.00000    90.00000  Step:          66  Bead:       0 x_centroid{angstrom}  cell{atomic_unit}
       C -4.80197e-01  3.52363e-02  2.20072e-01