6
# CELL(abcABC):  459.05226   459.05226   459.05226    90.00000    90.00000    90.00000  Step:           0  Bead:       0 x_centroid{angstrom}  cell{atomic_unit}
       C -3.39887e-01 -1.13437e-01  8.06659e-02
       O  8.43483e-01  2.62672e-01 -1.81512e-01
       H -7.35799e-02  8.16467e-01 -6.61432e-01
       H -4.30016e-01 -9.65701e-01  7.62278e-01
       L  6.13458e+01  0.00000e+00  0.00000e+00
       L  0.00000e+00  8.59064e+00  0.00000e+00
6
# CELL(abcABC):  459.05226   459.05226   459.05226    90.00000    90.00000    90.00000  Step:           1  Bead:       0 x_centroid{angstrom}  cell{atomic_unit}
       C -3.41866e-01 -1.13470e-01  8.07634e-02
       O  8.44818e-01  2.62591e-01 -1.81309e-01
       H -6.81420e-02  8.15839e-01 -6.69964e-01
       H -4.32510e-01 -9.62944e-01  7.66549e-01
       L  6.08411e+01 -1.86522e-01 -3.28680e-01
       L -4.92623e-01  7.93967e+00  8.02458e-02
6
# CELL(abcABC):  459.05226   459.05226   459.05226    90.00000    90.00000    90.00000  Step:           2  Bead:       0 x_centroid{angstrom}  cell{atomic_unit}
       C -3.44051e-01 -1.13725e-01  8.07871e-02
       O  8.46195e-01  2.62682e-01 -1.81066e-01
       H -6.09288e-02  8.15222e-01 -6.77768e-01
       H -4.35013e-01 -9.60272e-01  7.70379e-01
       L  6.03566e+01 -3.44066e-01 -7.09630e-01
       L -1.00004e+00  7.25031e+00  1.71720e-01
6
# CELL(abcABC):  459.05226   459.05226   459.05226    90.00000    90.00000    90.00000  Step:           3  Bead:       0 x_centroid{angstrom}  cell{atomic_unit}
       C -3.46108e-01 -1.13957e-01  8.08355e-02
       O  8.47421e-01  2.62718e-01 -1.80915e-01
       H -5.25776e-02  8.14772e-01 -6.84037e-01
       H -4.37772e-01 -9.57197e-01  7.73777e-01
       L  5.98610e+01 -4.72643e-01 -1.02936e+00
       L -1.49944e+00  6.58620e+00  2.87343e-01
6
# CELL(abcABC):  459.05226   459.05226   459.05226    90.00000    90.00000    90.00000  Step:           4  Bead:       0 x_centroid{angstrom}  cell{atomic_unit}
       C -3.48306e-01 -1.14013e-01  8.08550e-02
       O  8.48677e-01  2.62632e-01 -1.80732e-01
       H -4.35910e-02  8.14403e-01 -6.89102e-01
       H -4.39928e-01 -9.54370e-01  7.75812e-01
       L  5.93062e+01 -6.18790e-01 -1.35928e+00
       L -2.00455e+00  5.93849e+00  4.33669e-01
6
# CELL(abcABC):  459.05226   459.05226   459.05226    90.00000    90.00000    90.00000  Step:           5  Bead:       0 x_centroid{angstrom}  cell{atomic_unit}
       C -3.50503e-01 -1.13866e-01  8.06356e-02
       O  8.49911e-01  2.62406e-01 -1.80465e-01
       H -3.47356e-02  8.13246e-01 -6.92997e-01
       H -4.41566e-01 -9.50948e-01  7.78218e-01
       L  5.86354e+01 -8.05477e-01 -1.74259e+00
       L -2.48012e+00  5.33305e+00  5.75189e-01
6
# CELL(abcABC):  459.05226   459.05226   459.05226    90.00000    90.00000    90.00000  Step:           6  Bead:       0 x_centroid{angstrom}  cell{atomic_unit}
       C -3.52896e-01 -1.13804e-01  8.04257e-02
       O  8.51455e-01  2.62166e-01 -1.80336e-01
       H -2.74994e-02  8.11794e-01 -6.95697e-01
       H -4.44126e-01 -9.46028e-01  7.81481e-01
       L  5.79025e+01 -9.26631e-01 -2.15521e+00
       L -2.97063e+00  4.74267e+00  7.63801e-01
6
# CELL(abcABC):  459.05226   459.05226   459.05226    90.00000    90.00000    90.00000  Step:           7  Bead:       0 x_centroid{angstrom}  cell{atomic_unit}
       C -3.55072e-01 -1.13950e-01  7.99361e-02
       O  8.52913e-01  2.62018e-01 -1.80049e-01
       H -2.18627e-02  8.10728e-01 -6.96307e-01
       H -4.46293e-01 -9.40515e-01  7.83520e-01
       L  5.71240e+01 -1.02421e+00 -2.57954e+00
       L -3.45455e+00  4.18083e+00  9.21217e-01
6
# CELL(abcABC):  459.05226   459.05226   459.05226    90.00000    90.00000    90.00000  Step:           8  Bead:       0 x_centroid{angstrom}  cell{atomic_unit}
       C -3.57492e-01 -1.13987e-01  7.93871e-02
       O  8.54530e-01  2.61754e-01 -1.79747e-01
       H -1.52618e-02  8.10619e-01 -6.97476e-01
       H -4.49025e-01 -9.35414e-01  7.86608e-01
       L  5.63168e+01 -1.14330e+00 -2.98980e+00
       L -3.92437e+00  3.62240e+00  1.02289e+00
6
# CELL(abcABC):  459.05226   459.05226   459.05226    90.00000    90.00000    90.00000  Step:           9  Bead:       0 x_centroid{angstrom}  cell{atomic_unit}
       C -3.59879e-01 -1.14025e-01  7.87485e-02
       O  8.56164e-01  2.61398e-01 -1.79307e-01
       H -9.23278e-03  8.11396e-01 -7.00340e-01
       H -4.51835e-01 -9.29748e-01  7.90228e-01
       L  5.54529e+01 -1.25593e+00 -3.36621e+00
       L -4.38835e+00  3.11405e+00  1.14426e+00
6
# CELL(abcABC):  459.05226   459.05226   459.05226    90.00000    90.00000    90.00000  Step:          10  Bead:       0 x_centroid{angstrom}  cell{atomic_unit}
       C -3.62057e-01 -1.14154e-01  7.79207e-02
       O  8.57450e-01  2.61197e-01 -1.78749e-01
       H -3.64919e-04  8.13573e-01 -7.02598e-01
       H -4.54421e-01 -9.26904e-01  7.93604e-01
       L  5.45471e+01 -1.32587e+00 -3.67842e+00
       L -4.82967e+00  2.64642e+00  1.26668e+00
6
# CELL(abcABC):  459.05226   459.05226   459.05226    90.00000    90.00000    90.00000  Step:          11  Bead:       0 x_centroid{angstrom}  cell{atomic_unit}
       C -3.64105e-01 -1.14207e-01  7.70235e-02
       O  8.58525e-01  2.60820e-01 -1.78341e-01
       H  9.81360e-03  8.17592e-01 -7.02690e-01
       H -4.56538e-01 -9.24026e-01  7.98026e-01
       L  5.36102e+01 -1.42431e+00 -3.99589e+00
       L -5.22979e+00  2.23443e+00  1.38525e+00
6
# CELL(abcABC):  459.05226   459.05226   459.05226    90.00000    90.00000    90.00000  Step:          12  Bead:       0 x_centroid{angstrom}  cell{atomic_unit}
       C -3.66420e-01 -1.14073e-01  7.59823e-02
       O  8.59560e-01  2.60321e-01 -1.77918e-01
       H  2.12679e-02  8.22442e-01 -7.02435e-01
       H -4.56145e-01 -9.22299e-01  8.03508e-01
       L  5.27073e+01 -1.50358e+00 -4.21742e+00
       L -5.58170e+00  1.82795e+00  1.51121e+00
6
# CELL(abcABC):  459.05226   459.05226   459.05226    90.00000    90.00000    90.00000  Step:          13  Bead:       0 x_centroid{angstrom}  cell{atomic_unit}
       C -3.68966e-01 -1.13975e-01  7.48229e-02
       O  8.60843e-01  2.59830e-01 -1.77517e-01
       H  3.18073e-02  8.26730e-01 -7.00743e-01
       H -4.56084e-01 -9.19717e-01  8.09274e-01
       L  5.18200e+01 -1.60883e+00 -4.38680e+00
       L -5.85966e+00  1.50167e+00  1.65893e+00
6
# CELL(abcABC):  459.05226   459.05226   459.05226    90.00000    90.00000    90.00000  Step:          14  Bead:       0 x_centroid{angstrom}  cell{atomic_unit}
       C -3.71994e-01 -1.13918e-01  7.36200e-02
       O  8.62494e-01  2.59509e-01 -1.77032e-01
       H  4.24242e-02  8.28346e-01 -6.98776e-01
       H -4.56208e-01 -9.16677e-01  8.13915e-01
       L  5.09042e+01 -1.71115e+00 -4.52019e+00
       L -6.06212e+00  1.16327e+00  1.83499e+00
6
# CELL(abcABC):  459.05226   459.05226   459.05226    90.00000    90.00000    90.00000  Step:          15  Bead:       0 x_centroid{angstrom}  cell{atomic_unit}
       C -3.75077e-01 -1.13959e-01  7.23406e-02
       O  8.64303e-01  2.59362e-01 -1.76455e-01
       H  5.12359e-02  8.27317e-01 -6.97112e-01
       H -4.56399e-01 -9.12611e-01  8.18299e-01
       L  4.99530e+01 -1.83049e+00 -4.61758e+00
       L -6.21624e+00  8.84179e-01  2.02733e+00
6
# CELL(abcABC):  459.05226   459.05226   459.05226    90.00000    90.00000    90.00000  Step:          16  Bead:       0 x_centroid{angstrom}  cell{atomic_unit}
       C -3.78642e-01 -1.14226e-01  7.12760e-02
       O  8.66496e-01  2.59345e-01 -1.76115e-01
       H  5.88666e-02  8.24856e-01 -6.94911e-01
       H -4.55816e-01 -9.06524e-01  8.23357e-01
       L  4.89787e+01 -1.89987e+00 -4.69254e+00
       L -6.25606e+00  6.37322e-01  2.16422e+00
6
# CELL(abcABC):  459.05226   459.05226   459.05226    90.00000    90.00000    90.00000  Step:          17  Bead:       0 x_centroid{angstrom}  cell{atomic_unit}
       C -3.82126e-01 -1.14714e-01  7.05331e-02
       O  8.68502e-01  2.59505e-01 -1.75932e-01
       H  6.90272e-02  8.21262e-01 -6.93168e-01
       H -4.55750e-01 -8.99453e-01  8.27512e-01
       L  4.79329e+01 -1.98487e+00 -4.73434e+00
       L -6.21577e+00  3.58502e-01  2.29622e+00
6
# CELL(abcABC):  459.05226   459.05226   459.05226    90.00000    90.00000    90.00000  Step:          18  Bead:       0 x_centroid{angstrom}  cell{atomic_unit}
       C -3.85422e-01 -1.15314e-01  6.97871e-02
       O  8.70302e-01  2.59632e-01 -1.75682e-01
       H  8.20122e-02  8.19049e-01 -6.92275e-01
       H -4.57496e-01 -8.91941e-01  8.31486e-01
       L  4.68609e+01 -2.03267e+00 -4.67845e+00
       L -6.12224e+00  1.01654e-01  2.33607e+00
6
# CELL(abcABC):  459.05226   459.05226   459.05226    90.00000    90.00000    90.00000  Step:          19  Bead:       0 x_centroid{angstrom}  cell{atomic_unit}
       C -3.88745e-01 -1.15854e-01  6.94098e-02
       O  8.71996e-01  2.59623e-01 -1.75657e-01
       H  9.73096e-02  8.18610e-01 -6.91075e-01
       H -4.59570e-01 -8.84764e-01  8.34367e-01
       L  4.57925e+01 -2.06115e+00 -4.63288e+00
       L -6.01875e+00 -1.64876e-01  2.29788e+00
6
# CELL(abcABC):  459.05226   459.05226   459.05226    90.00000    90.00000    90.00000  Step:          20  Bead:       0 x_centroid{angstrom}  cell{atomic_unit}
       C -3.92213e-01 -1.16463e-01  6.89676e-02
       O  8.73759e-01  2.59674e-01 -1.75544e-01
       H  1.13420e-01  8.19191e-01 -6.90241e-01
       H -4.61748e-01 -8.78769e-01  8.36966e-01
       L  4.46495e+01 -2.08100e+00 -4.51176e+00
       L -5.93395e+00 -4.06218e-01  2.27892e+00
6
# CELL(abcABC):  459.05226   459.05226   459.05226    90.00000    90.00000    90.00000  Step:          21  Bead:       0 x_centroid{angstrom}  cell{atomic_unit}
       C -3.95711e-01 -1.17161e-01  6.89725e-02
       O  8.75432e-01  2.59601e-01 -1.75706e-01
       H  1.31175e-01  8.21715e-01 -6.90838e-01
       H -4.63754e-01 -8.71674e-01  8.40029e-01
       L  4.34479e+01 -2.07433e+00 -4.36768e+00
       L -5.87800e+00 -6.63881e-01  2.21843e+00
6
# CELL(abcABC):  459.05226   459.05226   459.05226    90.00000    90.00000    90.00000  Step:          22  Bead:       0 x_centroid{angstrom}  cell{atomic_unit}
       C -3.99401e-01 -1.18155e-01  6.89867e-02
       O  8.77184e-01  2.59724e-01 -1.75823e-01
       H  1.51618e-01  8.25505e-01 -6.93702e-01
       H -4.67432e-01 -8.65426e-01  8.44521e-01
       L  4.21386e+01 -2.09766e+00 -4.20220e+00
       L -5.69063e+00 -9.12025e-01  2.15057e+00
6
# CELL(abcABC):  459.05226   459.05226   459.05226    90.00000    90.00000    90.00000  Step:          23  Bead:       0 x_centroid{angstrom}  cell{atomic_unit}
       C -4.03395e-01 -1.19555e-01  6.91914e-02
       O  8.79146e-01  2.60027e-01 -1.76039e-01
       H  1.74140e-01  8.31045e-01 -6.96676e-01
       H -4.72856e-01 -8.58961e-01  8.48443e-01
       L  4.07521e+01 -2.07940e+00 -4.00214e+00
       L -5.48871e+00 -1.15578e+00  2.04380e+00
6
# CELL(abcABC):  459.05226   459.05226   459.05226    90.00000    90.00000    90.00000  Step:          24  Bead:       0 x_centroid{angstrom}  cell{atomic_unit}
       C -4.07830e-01 -1.21065e-01  6.93619e-02
       O  8.81287e-01  2.60416e-01 -1.76265e-01
       H  1.98797e-01  8.37430e-01 -6.99477e-01
       H -4.77993e-01 -8.53436e-01  8.52714e-01
       L  3.93229e+01 -2.02063e+00 -3.74721e+00
       L -5.28315e+00 -1.38636e+00  1.93431e+00
6
# CELL(abcABC):  459.05226   459.05226   459.05226    90.00000    90.00000    90.00000  Step:          25  Bead:       0 x_centroid{angstrom}  cell{atomic_unit}
       C -4.12704e-01 -1.22554e-01  6.99367e-02
       O  8.83619e-01  2.60905e-01 -1.76813e-01
       H  2.26496e-01  8.43154e-01 -7.02797e-01
       H -4.83943e-01 -8.49108e-01  8.57815e-01
       L  3.77835e+01 -1.94493e+00 -3.47923e+00
       L -4.99253e+00 -1.59617e+00  1.79339e+00
6
# CELL(abcABC):  459.05226   459.05226   459.05226    90.00000    90.00000    90.00000  Step:          26  Bead:       0 x_centroid{angstrom}  cell{atomic_unit}
       C -4.18375e-01 -1.24300e-01  7.09720e-02
       O  8.86254e-01  2.61587e-01 -1.77606e-01
       H  2.58169e-01  8.49236e-01 -7.06287e-01
       H -4.89125e-01 -8.45168e-01  8.61444e-01
       L  3.61066e+01 -1.80308e+00 -3.14141e+00
       L -4.69857e+00 -1.81708e+00  1.67242e+00
6
# CELL(abcABC):  459.05226   459.05226   459.05226    90.00000    90.00000    90.00000  Step:          27  Bead:       0 x_centroid{angstrom}  cell{atomic_unit}
       C -4.24876e-01 -1.26135e-01  7.23931e-02
       O  8.89305e-01  2.62300e-01 -1.78675e-01
       H  2.92578e-01  8.56722e-01 -7.10054e-01
       H -4.93730e-01 -8.42058e-01  8.65116e-01
       L  3.44008e+01 -1.64683e+00 -2.78552e+00
       L -4.39502e+00 -2.05183e+00  1.54062e+00
6
# CELL(abcABC):  459.05226   459.05226   459.05226    90.00000    90.00000    90.00000  Step:          28  Bead:       0 x_centroid{angstrom}  cell{atomic_unit}
       C -4.31808e-01 -1.28282e-01  7.36430e-02
       O  8.92600e-01  2.63430e-01 -1.79620e-01
       H  3.28874e-01  8.63832e-01 -7.14924e-01
       H -4.98936e-01 -8.41480e-01  8.69891e-01
       L  3.26372e+01 -1.47099e+00 -2.32835e+00
       L -4.08650e+00 -2.29516e+00  1.44937e+00
6
# CELL(abcABC):  459.05226   459.05226   459.05226    90.00000    90.00000    90.00000  Step:          29  Bead:       0 x_centroid{angstrom}  cell{atomic_unit}
       C -4.39460e-01 -1.30834e-01  7.49688e-02
       O  8.96117e-01  2.64806e-01 -1.80750e-01
       H  3.68498e-01  8.71868e-01 -7.20576e-01
       H -5.02371e-01 -8.40890e-01  8.77507e-01
       L  3.08050e+01 -1.31266e+00 -1.86955e+00
       L -3.76320e+00 -2.55983e+00  1.31083e+00
6
# CELL(abcABC):  459.05226   459.05226   459.05226    90.00000    90.00000    90.00000  Step:          30  Bead:       0 x_centroid{angstrom}  cell{atomic_unit}
       C -4.47403e-01 -1.33741e-01  7.62470e-02
       O  8.99615e-01  2.66391e-01 -1.81846e-01
       H  4.10582e-01  8.81659e-01 -7.28446e-01
       H -5.04486e-01 -8.41185e-01  8.87348e-01
       L  2.89005e+01 -1.16286e+00 -1.37015e+00
       L -3.43129e+00 -2.76555e+00  1.18613e+00
6
# CELL(abcABC):  459.05226   459.05226   459.05226    90.00000    90.00000    90.00000  Step:          31  Bead:       0 x_centroid{angstrom}  cell{atomic_unit}
       C -4.55435e-01 -1.36952e-01  7.78235e-02
       O  9.02923e-01  2.68106e-01 -1.83129e-01
       H  4.55465e-01  8.93186e-01 -7.37669e-01
       H -5.05268e-01 -8.41681e-01  8.97944e-01
       L  2.69168e+01 -9.39051e-01 -8.65762e-01
       L -3.08543e+00 -2.96211e+00  1.04286e+00
6
# CELL(abcABC):  459.05226   459.05226   459.05226    90.00000    90.00000    90.00000  Step:          32  Bead:       0 x_centroid{angstrom}  cell{atomic_unit}
       C -4.63656e-01 -1.40073e-01  7.94503e-02
       O  9.06123e-01  2.69711e-01 -1.84395e-01
       H  5.02905e-01  9.05236e-01 -7.47995e-01
       H -5.04694e-01 -8.42060e-01  9.08792e-01
       L  2.49446e+01 -6.29916e-01 -3.27662e-01
       L -2.67017e+00 -3.17078e+00  8.67065e-01
6
# CELL(abcABC):  459.05226   459.05226   459.05226    90.00000    90.00000    90.00000  Step:          33  Bead:       0 x_centroid{angstrom}  cell{atomic_unit}
       C -4.72053e-01 -1.43106e-01  8.09825e-02
       O  9.09290e-01  2.71154e-01 -1.85344e-01
       H  5.52623e-01  9.19157e-01 -7.61841e-01
       H -5.03701e-01 -8.42840e-01  9.19200e-01
       L  2.28632e+01 -2.87981e-01  2.34351e-01
       L -2.27624e+00 -3.37011e+00  7.46689e-01
6
# CELL(abcABC):  459.05226   459.05226   459.05226    90.00000    90.00000    90.00000  Step:          34  Bead:       0 x_centroid{angstrom}  cell{atomic_unit}
       C -4.80385e-01 -1.46175e-01  8.26822e-02
       O  9.12309e-01  2.72636e-01 -1.86169e-01
       H  6.02846e-01  9.32920e-01 -7.77814e-01
       H -5.01651e-01 -8.43607e-01  9.27785e-01
       L  2.07283e+01  1.78661e-02  7.99086e-01
       L -1.82004e+00 -3.55174e+00  6.13892e-01
6
# CELL(abcABC):  459.05226   459.05226   459.05226    90.00000    90.00000    90.00000  Step:          35  Bead:       0 x_centroid{angstrom}  cell{atomic_unit}
       C -4.88589e-01 -1.48898e-01  8.43167e-02
       O  9.15072e-01  2.73945e-01 -1.86870e-01
       H  6.54755e-01  9.46067e-01 -7.92847e-01
       H -4.98762e-01 -8.45117e-01  9.34230e-01
       L  1.85514e+01  3.29664e-01  1.38567e+00
       L -1.29752e+00 -3.81580e+00  4.68439e-01
6
# CELL(abcABC):  459.05226   459.05226   459.05226    90.00000    90.00000    90.00000  Step:          36  Bead:       0 x_centroid{angstrom}  cell{atomic_unit}
       C -4.96403e-01 -1.51263e-01  8.60825e-02
       O  9.17349e-01  2.75138e-01 -1.87349e-01
       H  7.06645e-01  9.56681e-01 -8.09742e-01
       H -4.92748e-01 -8.46467e-01  9.37458e-01
       L  1.63328e+01  6.80400e-01  1.94219e+00
       L -7.85491e-01 -4.21667e+00  3.10798e-01
6
# CELL(abcABC):  459.05226   459.05226   459.05226    90.00000    90.00000    90.00000  Step:          37  Bead:       0 x_centroid{angstrom}  cell{atomic_unit}
       C -5.04082e-01 -1.53736e-01  8.78977e-02
       O  9.19479e-01  2.76556e-01 -1.87623e-01
       H  7.58029e-01  9.64576e-01 -8.27211e-01
       H -4.85540e-01 -8.47291e-01  9.37432e-01
       L  1.40929e+01  9.82319e-01  2.49993e+00
       L -2.09001e-01 -4.70252e+00  1.63467e-01
6
# CELL(abcABC):  459.05226   459.05226   459.05226    90.00000    90.00000    90.00000  Step:          38  Bead:       0 x_centroid{angstrom}  cell{atomic_unit}
       C -5.11420e-01 -1.55985e-01  8.98746e-02
       O  9.21321e-01  2.78106e-01 -1.87769e-01
       H  8.08714e-01  9.68789e-01 -8.45967e-01
       H -4.77138e-01 -8.49166e-01  9.34713e-01
       L  1.18586e+01  1.26945e+00  3.04752e+00
       L  4.06464e-01 -5.27329e+00  4.35433e-02
6
# CELL(abcABC):  459.05226   459.05226   459.05226    90.00000    90.00000    90.00000  Step:          39  Bead:       0 x_centroid{angstrom}  cell{atomic_unit}
       C -5.18363e-01 -1.58234e-01  9.17109e-02
       O  9.22843e-01  2.80036e-01 -1.87772e-01
       H  8.58120e-01  9.68228e-01 -8.62793e-01
       H -4.67077e-01 -8.52293e-01  9.29515e-01
       L  9.64399e+00  1.60531e+00  3.55045e+00
       L  9.76583e-01 -5.86601e+00 -1.00858e-01
6
# CELL(abcABC):  459.05226   459.05226   459.05226    90.00000    90.00000    90.00000  Step:          40  Bead:       0 x_centroid{angstrom}  cell{atomic_unit}
       C -5.24776e-01 -1.60003e-01  9.35878e-02
       O  9.24047e-01  2.81854e-01 -1.87769e-01
       H  9.04885e-01  9.64109e-01 -8.79571e-01
       H -4.55620e-01 -8.55854e-01  9.23690e-01
       L  7.38149e+00  1.95284e+00  4.03441e+00
       L  1.54906e+00 -6.42380e+00 -2.60879e-01
6
# CELL(abcABC):  459.05226   459.05226   459.05226    90.00000    90.00000    90.00000  Step:          41  Bead:       0 x_centroid{angstrom}  cell{atomic_unit}
       C -5.30797e-01 -1.61404e-01  9.53946e-02
       O  9.24936e-01  2.83554e-01 -1.87906e-01
       H  9.48780e-01  9.57523e-01 -8.93780e-01
       H -4.40982e-01 -8.59455e-01  9.18404e-01
       L  5.13022e+00  2.32445e+00  4.41314e+00
       L  2.14348e+00 -6.97392e+00 -3.75845e-01
6
# CELL(abcABC):  459.05226   459.05226   459.05226    90.00000    90.00000    90.00000  Step:          42  Bead:       0 x_centroid{angstrom}  cell{atomic_unit}
       C -5.36237e-01 -1.62161e-01  9.68291e-02
       O  9.25430e-01  2.85011e-01 -1.87933e-01
       H  9.89759e-01  9.47520e-01 -9.05095e-01
       H -4.24070e-01 -8.63463e-01  9.12935e-01
       L  2.85533e+00  2.71678e+00  4.72599e+00
       L  2.75136e+00 -7.52727e+00 -4.60079e-01
6
# CELL(abcABC):  459.05226   459.05226   459.05226    90.00000    90.00000    90.00000  Step:          43  Bead:       0 x_centroid{angstrom}  cell{atomic_unit}
       C -5.40699e-01 -1.62441e-01  9.78228e-02
       O  9.25400e-01  2.86083e-01 -1.87861e-01
       H  1.02614e+00  9.38108e-01 -9.14307e-01
       H -4.05921e-01 -8.67685e-01  9.09036e-01
       L  5.88703e-01  3.09661e+00  5.00565e+00
       L  3.41914e+00 -7.99912e+00 -4.99510e-01
6
# CELL(abcABC):  459.05226   459.05226   459.05226    90.00000    90.00000    90.00000  Step:          44  Bead:       0 x_centroid{angstrom}  cell{atomic_unit}
       C -5.44223e-01 -1.62076e-01  9.83391e-02
       O  9.24830e-01  2.86738e-01 -1.87725e-01
       H  1.05763e+00  9.27695e-01 -9.20584e-01
       H -3.85493e-01 -8.71996e-01  9.06919e-01
       L -1.70883e+00  3.43410e+00  5.19785e+00
       L  4.08178e+00 -8.37439e+00 -5.58018e-01
6
# CELL(abcABC):  459.05226   459.05226   459.05226    90.00000    90.00000    90.00000  Step:          45  Bead:       0 x_centroid{angstrom}  cell{atomic_unit}
       C -5.47158e-01 -1.61199e-01  9.85248e-02
       O  9.23921e-01  2.87091e-01 -1.87743e-01
       H  1.08491e+00  9.15439e-01 -9.22674e-01
       H -3.62445e-01 -8.75748e-01  9.07016e-01
       L -3.95738e+00  3.75244e+00  5.35926e+00
       L  4.65605e+00 -8.76856e+00 -5.99868e-01
6
# CELL(abcABC):  459.05226   459.05226   459.05226    90.00000    90.00000    90.00000  Step:          46  Bead:       0 x_centroid{angstrom}  cell{atomic_unit}
       C -5.49042e-01 -1.59816e-01  9.83537e-02
       O  9.22437e-01  2.86928e-01 -1.87831e-01
       H  1.10749e+00  9.03707e-01 -9.21422e-01
       H -3.38065e-01 -8.77896e-01  9.09177e-01
       L -6.29598e+00  4.06190e+00  5.43998e+00
       L  5.20400e+00 -9.10966e+00 -6.38099e-01
6
# CELL(abcABC):  459.05226   459.05226   459.05226    90.00000    90.00000    90.00000  Step:          47  Bead:       0 x_centroid{angstrom}  cell{atomic_unit}
       C -5.50154e-01 -1.57899e-01  9.74887e-02
       O  9.20756e-01  2.86171e-01 -1.87736e-01
       H  1.12433e+00  8.93037e-01 -9.17441e-01
       H -3.14008e-01 -8.78073e-01  9.13949e-01
       L -8.60074e+00  4.35096e+00  5.50798e+00
       L  5.75818e+00 -9.37564e+00 -6.17320e-01
6
# CELL(abcABC):  459.05226   459.05226   459.05226    90.00000    90.00000    90.00000  Step:          48  Bead:       0 x_centroid{angstrom}  cell{atomic_unit}
       C -5.50051e-01 -1.55411e-01  9.59920e-02
       O  9.18581e-01  2.84702e-01 -1.87536e-01
       H  1.13500e+00  8.84112e-01 -9.08250e-01
       H -2.90375e-01 -8.75544e-01  9.19447e-01
       L -1.09363e+01  4.65090e+00  5.47301e+00
       L  6.24422e+00 -9.53560e+00 -6.34576e-01
6
# CELL(abcABC):  459.05226   459.05226   459.05226    90.00000    90.00000    90.00000  Step:          49  Bead:       0 x_centroid{angstrom}  cell{atomic_unit}
       C -5.49197e-01 -1.52599e-01  9.41070e-02
       O  9.16064e-01  2.82778e-01 -1.87224e-01
       H  1.14157e+00  8.76736e-01 -8.96993e-01
       H -2.66110e-01 -8.71207e-01  9.25762e-01
       L -1.32844e+01  4.90261e+00  5.37617e+00
       L  6.63508e+00 -9.65620e+00 -6.54342e-01
6
# CELL(abcABC):  459.05226   459.05226   459.05226    90.00000    90.00000    90.00000  Step:          50  Bead:       0 x_centroid{angstrom}  cell{atomic_unit}
       C -5.47574e-01 -1.49884e-01  9.18264e-02
       O  9.13190e-01  2.80618e-01 -1.86683e-01
       H  1.14525e+00  8.71907e-01 -8.85159e-01
       H -2.42368e-01 -8.64532e-01  9.32563e-01
       L -1.56628e+01  5.11527e+00  5.25353e+00
       L  6.93182e+00 -9.72684e+00 -6.15222e-01
6
# CELL(abcABC):  459.05226   459.05226   459.05226    90.00000    90.00000    90.00000  Step:          51  Bead:       0 x_centroid{angstrom}  cell{atomic_unit}
       C -5.45362e-01 -1.47150e-01  8.96069e-02
       O  9.10295e-01  2.78302e-01 -1.85985e-01
       H  1.14442e+00  8.67913e-01 -8.73717e-01
       H -2.20748e-01 -8.56452e-01  9.36492e-01
       L -1.80897e+01  5.32807e+00  5.18296e+00
       L  7.14988e+00 -9.74660e+00 -5.35498e-01
6
# CELL(abcABC):  459.05226   459.05226   459.05226    90.00000    90.00000    90.00000  Step:          52  Bead:       0 x_centroid{angstrom}  cell{atomic_unit}
       C -5.42086e-01 -1.44099e-01  8.71916e-02
       O  9.07087e-01  2.75530e-01 -1.84842e-01
       H  1.13777e+00  8.64043e-01 -8.64223e-01
       H -2.00921e-01 -8.44993e-01  9.37672e-01
       L -2.05946e+01  5.46236e+00  5.05760e+00
       L  7.28421e+00 -9.77034e+00 -4.75077e-01
6
# CELL(abcABC):  459.05226   459.05226   459.05226    90.00000    90.00000    90.00000  Step:          53  Bead:       0 x_centroid{angstrom}  cell{atomic_unit}
       C -5.37757e-01 -1.40873e-01  8.48582e-02
       O  9.03470e-01  2.72351e-01 -1.83396e-01
       H  1.12848e+00  8.63534e-01 -8.57054e-01
       H -1.84396e-01 -8.32574e-01  9.35397e-01
       L -2.31821e+01  5.63243e+00  4.87394e+00
       L  7.30479e+00 -9.73964e+00 -3.94075e-01
6
# CELL(abcABC):  459.05226   459.05226   459.05226    90.00000    90.00000    90.00000  Step:          54  Bead:       0 x_centroid{angstrom}  cell{atomic_unit}
       C -5.32470e-01 -1.37291e-01  8.24237e-02
       O  8.99573e-01  2.68800e-01 -1.81343e-01
       H  1.11554e+00  8.62715e-01 -8.53371e-01
       H -1.71162e-01 -8.18181e-01  9.28189e-01
       L -2.57587e+01  5.80031e+00  4.66891e+00
       L  7.20398e+00 -9.71707e+00 -2.67673e-01
6
# CELL(abcABC):  459.05226   459.05226   459.05226    90.00000    90.00000    90.00000  Step:          55  Bead:       0 x_centroid{angstrom}  cell{atomic_unit}
       C -5.26304e-01 -1.33941e-01  8.03787e-02
       O  8.95491e-01  2.65346e-01 -1.78914e-01
       H  1.09990e+00  8.61552e-01 -8.55051e-01
       H -1.62648e-01 -8.02215e-01  9.15737e-01
       L -2.83761e+01  5.95843e+00  4.47135e+00
       L  6.98394e+00 -9.67379e+00 -1.71666e-01
6
# CELL(abcABC):  459.05226   459.05226   459.05226    90.00000    90.00000    90.00000  Step:          56  Bead:       0 x_centroid{angstrom}  cell{atomic_unit}
       C -5.19368e-01 -1.30662e-01  7.82235e-02
       O  8.91436e-01  2.61886e-01 -1.75869e-01
       H  1.08013e+00  8.59844e-01 -8.61398e-01
       H -1.59590e-01 -7.84708e-01  8.99494e-01
       L -3.09685e+01  6.08862e+00  4.22671e+00
       L  6.70073e+00 -9.73045e+00 -5.43660e-02
6
# CELL(abcABC):  459.05226   459.05226   459.05226    90.00000    90.00000    90.00000  Step:          57  Bead:       0 x_centroid{angstrom}  cell{atomic_unit}
       C -5.11800e-01 -1.27262e-01  7.63438e-02
       O  8.87438e-01  2.58453e-01 -1.72669e-01
       H  1.05695e+00  8.56921e-01 -8.70454e-01
       H -1.61521e-01 -7.67737e-01  8.80259e-01
       L -3.35994e+01  6.14191e+00  3.90347e+00
       L  6.37949e+00 -9.89503e+00  7.35223e-02
6
# CELL(abcABC):  459.05226   459.05226   459.05226    90.00000    90.00000    90.00000  Step:          58  Bead:       0 x_centroid{angstrom}  cell{atomic_unit}
       C -5.03482e-01 -1.23725e-01  7.43250e-02
       O  8.83384e-01  2.55097e-01 -1.69249e-01
       H  1.03016e+00  8.51489e-01 -8.80378e-01
       H -1.67865e-01 -7.51000e-01  8.60068e-01
       L -3.62484e+01  6.10049e+00  3.52506e+00
       L  6.01192e+00 -1.01821e+01  2.45114e-01
6
# CELL(abcABC):  459.05226   459.05226   459.05226    90.00000    90.00000    90.00000  Step:          59  Bead:       0 x_centroid{angstrom}  cell{atomic_unit}
       C -4.94491e-01 -1.19756e-01  7.22638e-02
       O  8.79190e-01  2.51888e-01 -1.65698e-01
       H  1.00188e+00  8.42300e-01 -8.92130e-01
       H -1.78532e-01 -7.37941e-01  8.40153e-01
       L -3.88448e+01  5.99450e+00  3.09474e+00
       L  5.61687e+00 -1.04891e+01  4.21412e-01
6
# CELL(abcABC):  459.05226   459.05226   459.05226    90.00000    90.00000    90.00000  Step:          60  Bead:       0 x_centroid{angstrom}  cell{atomic_unit}
       C -4.84503e-01 -1.15347e-01  7.00176e-02
       O  8.74459e-01  2.48906e-01 -1.62107e-01
       H  9.73613e-01  8.30734e-01 -9.05407e-01
       H -1.92504e-01 -7.31302e-01  8.23395e-01
       L -4.14490e+01  5.85155e+00  2.56381e+00
       L  5.17567e+00 -1.08555e+01  5.96240e-01
6
# CELL(abcABC):  459.05226   459.05226   459.05226    90.00000    90.00000    90.00000  Step:          61  Bead:       0 x_centroid{angstrom}  cell{atomic_unit}
       C -4.74031e-01 -1.10383e-01  6.71677e-02
       O  8.69600e-01  2.46045e-01 -1.58447e-01
       H  9.44649e-01  8.17062e-01 -9.17847e-01
       H -2.09538e-01 -7.31027e-01  8.11924e-01
       L -4.40777e+01  5.62585e+00  2.02013e+00
       L  4.74566e+00 -1.12482e+01  7.13584e-01
6
# CELL(abcABC):  459.05226   459.05226   459.05226    90.00000    90.00000    90.00000  Step:          62  Bead:       0 x_centroid{angstrom}  cell{atomic_unit}
       C -4.62850e-01 -1.04999e-01  6.37277e-02
       O  8.64332e-01  2.43296e-01 -1.54692e-01
       H  9.16283e-01  8.03320e-01 -9.30513e-01
       H -2.29117e-01 -7.37417e-01  8.06198e-01
       L -4.66802e+01  5.34729e+00  1.47358e+00
       L  4.26018e+00 -1.16977e+01  8.68078e-01
6
# CELL(abcABC):  459.05226   459.05226   459.05226    90.00000    90.00000    90.00000  Step:          63  Bead:       0 x_centroid{angstrom}  cell{atomic_unit}
       C -4.51232e-01 -9.89417e-02  5.98228e-02
       O  8.58764e-01  2.40564e-01 -1.51148e-01
       H  8.88736e-01  7.87937e-01 -9.41476e-01
       H -2.49938e-01 -7.50404e-01  8.07695e-01
       L -4.92663e+01  5.01281e+00  8.80436e-01
       L  3.76631e+00 -1.21750e+01  9.81930e-01
6
# CELL(abcABC):  459.05226   459.05226   459.05226    90.00000    90.00000    90.00000  Step:          64  Bead:       0 x_centroid{angstrom}  cell{atomic_unit}
       C -4.38849e-01 -9.22831e-02  5.51951e-02
       O  8.52713e-01  2.37760e-01 -1.47563e-01
       H  8.61545e-01  7.72248e-01 -9.50895e-01
       H -2.72565e-01 -7.69063e-01  8.15610e-01
       L -5.18486e+01  4.62163e+00  2.94806e-01
       L  3.23331e+00 -1.26937e+01  1.09155e+00
6
# CELL(abcABC):  459.05226   459.05226   459.05226    90.00000    90.00000    90.00000  Step:          65  Bead:       0 x_centroid{angstrom}  cell{atomic_unit}
       C -4.26048e-01 -8.50733e-02  5.04476e-02
       O  8.46421e-01  2.34788e-01 -1.44269e-01
       H  8.34044e-01  7.56344e-01 -9.58632e-01
       H -2.96039e-01 -7.91322e-01  8.27884e-01
       L -5.44079e+01  4.12431e+00 -2.96126e-01
       L  2.67828e+00 -1.32252e+01  1.22457e+00
6
# CELL(abcABC):  459.05226   459.05226   459.05226    90.00000    90.00000    90.00000  Step:          66  Bead:       0 x_centroid{angstrom}  cell{atomic_unit}
       C -4.13177e-01 -7.80658e-02  4.55545e-02