6
# CELL(abcABC):  459.05226   459.05226   459.05226    90.00000    90.00000    90.00000  Step:           0  Bead:       0 x_centroid{angstrom}  cell{atomic_unit}
       C -3.39887e-01 -1.13437e-01  8.06659e-02
       O  8.43483e-01  2.62672e-01 -1.81512e-01
       H -7.35799e-02  8.16467e-01 -6.61432e-01
       H -4.30016e-01 -9.65701e-01  7.62278e-01
       L  6.13458e+01  0.00000e+00  0.00000e+00
       L  0.00000e+00  8.59064e+00  0.00000e+00
6
# CELL(abcABC):  459.05226   459.05226   459.05226    90.00000    90.00000    90.00000  Step:           1  Bead:       0 x_centroid{angstrom}  cell{atomic_unit}
       C -3.42447e-01 -1.11713e-01  8.04996e-02
       O  8.45600e-01  2.61537e-01 -1.81984e-01
       H -7.83355e-02  8.11106e-01 -6.59953e-01
       H -4.28259e-01 -9.63025e-01  7.70259e-01
       L  6.19677e+01  4.61132e-03 -2.11549e-01
       L -8.01353e-01  8.84697e+00  2.18367e-01
6
# CELL(abcABC):  459.05226   459.05226   459.05226    90.00000    90.00000    90.00000  Step:           2  Bead:       0 x_centroid{angstrom}  cell{atomic_unit}
       C -3.44723e-01 -1.10128e-01  8.02723e-02
       O  8.47198e-01  2.60432e-01 -1.82356e-01
       H -7.91629e-02  8.06332e-01 -6.59410e-01
       H -4.25553e-01 -9.59708e-01  7.78296e-01
       L  6.25919e+01 -6.96705e-04 -3.78813e-01
       L -1.62842e+00  9.05435e+00  4.61370e-01
6
# CELL(abcABC):  459.05226   459.05226   459.05226    90.00000    90.00000    90.00000  Step:           3  Bead:       0 x_centroid{angstrom}  cell{atomic_unit}
       C -3.46703e-01 -1.08338e-01  7.99788e-02
       O  8.48266e-01  2.59160e-01 -1.82656e-01
       H -7.65393e-02  8.01798e-01 -6.58487e-01
       H -4.21465e-01 -9.56450e-01  7.85575e-01
       L  6.32372e+01  1.71941e-02 -5.06141e-01
       L -2.41419e+00  9.30220e+00  6.87690e-01
6
# CELL(abcABC):  459.05226   459.05226   459.05226    90.00000    90.00000    90.00000  Step:           4  Bead:       0 x_centroid{angstrom}  cell{atomic_unit}
       C -3.48692e-01 -1.07006e-01  7.96577e-02
       O  8.49080e-01  2.58065e-01 -1.82932e-01
       H -7.15100e-02  8.00136e-01 -6.57500e-01
       H -4.15673e-01 -9.53391e-01  7.92723e-01
       L  6.38885e+01  7.93258e-02 -5.93392e-01
       L -3.16285e+00  9.44504e+00  9.10940e-01
6
# CELL(abcABC):  459.05226   459.05226   459.05226    90.00000    90.00000    90.00000  Step:           5  Bead:       0 x_centroid{angstrom}  cell{atomic_unit}
       C -3.50301e-01 -1.05891e-01  7.94401e-02
       O  8.49718e-01  2.57065e-01 -1.83131e-01
       H -6.70823e-02  7.99400e-01 -6.57622e-01
       H -4.10988e-01 -9.50184e-01  7.98536e-01
       L  6.45404e+01  1.12816e-01 -6.81499e-01
       L -3.91729e+00  9.62069e+00  1.09506e+00
6
# CELL(abcABC):  459.05226   459.05226   459.05226    90.00000    90.00000    90.00000  Step:           6  Bead:       0 x_centroid{angstrom}  cell{atomic_unit}
       C -3.51924e-01 -1.04953e-01  7.92883e-02
       O  8.50498e-01  2.56057e-01 -1.83150e-01
       H -6.46227e-02  7.99309e-01 -6.58667e-01
       H -4.06429e-01 -9.45374e-01  8.01621e-01
       L  6.51382e+01  1.47230e-01 -7.54204e-01
       L -4.64461e+00  9.79168e+00  1.30971e+00
6
# CELL(abcABC):  459.05226   459.05226   459.05226    90.00000    90.00000    90.00000  Step:           7  Bead:       0 x_centroid{angstrom}  cell{atomic_unit}
       C -3.53257e-01 -1.04075e-01  7.90689e-02
       O  8.51397e-01  2.55090e-01 -1.82958e-01
       H -6.54806e-02  7.98842e-01 -6.60795e-01
       H -4.03888e-01 -9.40093e-01  8.03217e-01
       L  6.57033e+01  1.64258e-01 -7.88553e-01
       L -5.32936e+00  9.90593e+00  1.53654e+00
6
# CELL(abcABC):  459.05226   459.05226   459.05226    90.00000    90.00000    90.00000  Step:           8  Bead:       0 x_centroid{angstrom}  cell{atomic_unit}
       C -3.54453e-01 -1.02889e-01  7.88271e-02
       O  8.52527e-01  2.53856e-01 -1.82739e-01
       H -7.02303e-02  7.97432e-01 -6.63216e-01
       H -4.02761e-01 -9.33319e-01  8.04928e-01
       L  6.62473e+01  1.92170e-01 -7.96134e-01
       L -5.97496e+00  1.00329e+01  1.74778e+00
6
# CELL(abcABC):  459.05226   459.05226   459.05226    90.00000    90.00000    90.00000  Step:           9  Bead:       0 x_centroid{angstrom}  cell{atomic_unit}
       C -3.55536e-01 -1.01641e-01  7.84668e-02
       O  8.53766e-01  2.52568e-01 -1.82184e-01
       H -7.64515e-02  7.95489e-01 -6.67289e-01
       H -4.03282e-01 -9.25889e-01  8.04358e-01
       L  6.67882e+01  2.26814e-01 -8.16020e-01
       L -6.54162e+00  1.01621e+01  1.98569e+00
6
# CELL(abcABC):  459.05226   459.05226   459.05226    90.00000    90.00000    90.00000  Step:          10  Bead:       0 x_centroid{angstrom}  cell{atomic_unit}
       C -3.56282e-01 -1.00885e-01  7.79977e-02
       O  8.54517e-01  2.51575e-01 -1.81492e-01
       H -7.95771e-02  7.95322e-01 -6.72332e-01
       H -4.03244e-01 -9.19057e-01  8.03846e-01
       L  6.73614e+01  2.90814e-01 -8.34859e-01
       L -7.04874e+00  1.02565e+01  2.30952e+00
6
# CELL(abcABC):  459.05226   459.05226   459.05226    90.00000    90.00000    90.00000  Step:          11  Bead:       0 x_centroid{angstrom}  cell{atomic_unit}
       C -3.56701e-01 -9.98350e-02  7.75586e-02
       O  8.54914e-01  2.50495e-01 -1.80807e-01
       H -8.06407e-02  7.94120e-01 -6.77819e-01
       H -4.03583e-01 -9.13301e-01  8.03565e-01
       L  6.79721e+01  3.47848e-01 -8.65689e-01
       L -7.46715e+00  1.03429e+01  2.56570e+00
6
# CELL(abcABC):  459.05226   459.05226   459.05226    90.00000    90.00000    90.00000  Step:          12  Bead:       0 x_centroid{angstrom}  cell{atomic_unit}
       C -3.56619e-01 -9.88360e-02  7.70874e-02
       O  8.54798e-01  2.49420e-01 -1.80090e-01
       H -7.93338e-02  7.94410e-01 -6.83357e-01
       H -4.04202e-01 -9.08517e-01  8.03250e-01
       L  6.86027e+01  3.81677e-01 -8.97607e-01
       L -7.79560e+00  1.04669e+01  2.76035e+00
6
# CELL(abcABC):  459.05226   459.05226   459.05226    90.00000    90.00000    90.00000  Step:          13  Bead:       0 x_centroid{angstrom}  cell{atomic_unit}
       C -3.56172e-01 -9.78203e-02  7.66194e-02
       O  8.54437e-01  2.48435e-01 -1.79354e-01
       H -7.64839e-02  7.94562e-01 -6.89602e-01
       H -4.06854e-01 -9.05189e-01  8.03300e-01
       L  6.92409e+01  4.12187e-01 -9.10764e-01
       L -8.04081e+00  1.05422e+01  2.95638e+00
6
# CELL(abcABC):  459.05226   459.05226   459.05226    90.00000    90.00000    90.00000  Step:          14  Bead:       0 x_centroid{angstrom}  cell{atomic_unit}
       C -3.55600e-01 -9.67624e-02  7.62685e-02
       O  8.54012e-01  2.47453e-01 -1.78675e-01
       H -7.20640e-02  7.94606e-01 -6.95864e-01
       H -4.11572e-01 -9.02283e-01  8.02871e-01
       L  6.98369e+01  4.17353e-01 -9.55888e-01
       L -8.23550e+00  1.06026e+01  3.16971e+00
6
# CELL(abcABC):  459.05226   459.05226   459.05226    90.00000    90.00000    90.00000  Step:          15  Bead:       0 x_centroid{angstrom}  cell{atomic_unit}
       C -3.55037e-01 -9.56881e-02  7.58574e-02
       O  8.53686e-01  2.46587e-01 -1.77934e-01
       H -6.92334e-02  7.92351e-01 -7.00873e-01
       H -4.16180e-01 -8.99092e-01  8.00948e-01
       L  7.04421e+01  4.14256e-01 -9.32016e-01
       L -8.36504e+00  1.06115e+01  3.27633e+00
6
# CELL(abcABC):  459.05226   459.05226   459.05226    90.00000    90.00000    90.00000  Step:          16  Bead:       0 x_centroid{angstrom}  cell{atomic_unit}
       C -3.54130e-01 -9.46171e-02  7.56889e-02
       O  8.53457e-01  2.45854e-01 -1.77354e-01
       H -7.04216e-02  7.87709e-01 -7.05563e-01
       H -4.22435e-01 -8.95553e-01  7.98358e-01
       L  7.10308e+01  4.09236e-01 -8.92119e-01
       L -8.46184e+00  1.05781e+01  3.36517e+00
6
# CELL(abcABC):  459.05226   459.05226   459.05226    90.00000    90.00000    90.00000  Step:          17  Bead:       0 x_centroid{angstrom}  cell{atomic_unit}
       C -3.53026e-01 -9.34212e-02  7.54095e-02
       O  8.53491e-01  2.45145e-01 -1.76662e-01
       H -7.62260e-02  7.80537e-01 -7.10395e-01
       H -4.30635e-01 -8.91332e-01  7.95469e-01
       L  7.16234e+01  4.17429e-01 -8.73553e-01
       L -8.46838e+00  1.04808e+01  3.46455e+00
6
# CELL(abcABC):  459.05226   459.05226   459.05226    90.00000    90.00000    90.00000  Step:          18  Bead:       0 x_centroid{angstrom}  cell{atomic_unit}
       C -3.51759e-01 -9.22783e-02  7.49120e-02
       O  8.53514e-01  2.44527e-01 -1.75920e-01
       H -8.30297e-02  7.72481e-01 -7.14959e-01
       H -4.39629e-01 -8.87083e-01  7.94102e-01
       L  7.21959e+01  4.67617e-01 -8.20035e-01
       L -8.42686e+00  1.04101e+01  3.57471e+00
6
# CELL(abcABC):  459.05226   459.05226   459.05226    90.00000    90.00000    90.00000  Step:          19  Bead:       0 x_centroid{angstrom}  cell{atomic_unit}
       C -3.50100e-01 -9.08174e-02  7.44979e-02
       O  8.53184e-01  2.43767e-01 -1.75373e-01
       H -8.96263e-02  7.64781e-01 -7.19316e-01
       H -4.47955e-01 -8.84691e-01  7.94639e-01
       L  7.27870e+01  4.65067e-01 -7.31550e-01
       L -8.33328e+00  1.03619e+01  3.61861e+00
6
# CELL(abcABC):  459.05226   459.05226   459.05226    90.00000    90.00000    90.00000  Step:          20  Bead:       0 x_centroid{angstrom}  cell{atomic_unit}
       C -3.48040e-01 -8.93736e-02  7.39215e-02
       O  8.52334e-01  2.42938e-01 -1.74724e-01
       H -9.31372e-02  7.59160e-01 -7.25274e-01
       H -4.55912e-01 -8.83101e-01  7.97112e-01
       L  7.33848e+01  4.41095e-01 -6.93951e-01
       L -8.15693e+00  1.03437e+01  3.66109e+00
6
# CELL(abcABC):  459.05226   459.05226   459.05226    90.00000    90.00000    90.00000  Step:          21  Bead:       0 x_centroid{angstrom}  cell{atomic_unit}
       C -3.45525e-01 -8.79240e-02  7.30752e-02
       O  8.50876e-01  2.42068e-01 -1.74015e-01
       H -9.33593e-02  7.55288e-01 -7.31487e-01
       H -4.63031e-01 -8.82753e-01  8.02182e-01
       L  7.40850e+01  4.34167e-01 -7.12873e-01
       L -7.91396e+00  1.04663e+01  3.64490e+00
6
# CELL(abcABC):  459.05226   459.05226   459.05226    90.00000    90.00000    90.00000  Step:          22  Bead:       0 x_centroid{angstrom}  cell{atomic_unit}
       C -3.42811e-01 -8.65763e-02  7.22979e-02
       O  8.49130e-01  2.41186e-01 -1.73413e-01
       H -9.18425e-02  7.53053e-01 -7.38062e-01
       H -4.69766e-01 -8.82650e-01  8.08475e-01
       L  7.48407e+01  4.40549e-01 -7.10008e-01
       L -7.58737e+00  1.05968e+01  3.60922e+00
6
# CELL(abcABC):  459.05226   459.05226   459.05226    90.00000    90.00000    90.00000  Step:          23  Bead:       0 x_centroid{angstrom}  cell{atomic_unit}
       C -3.39825e-01 -8.50705e-02  7.14353e-02
       O  8.47284e-01  2.40156e-01 -1.72823e-01
       H -9.10953e-02  7.52595e-01 -7.43781e-01
       H -4.77442e-01 -8.83860e-01  8.15156e-01
       L  7.56449e+01  4.86133e-01 -6.92427e-01
       L -7.18191e+00  1.06925e+01  3.49853e+00
6
# CELL(abcABC):  459.05226   459.05226   459.05226    90.00000    90.00000    90.00000  Step:          24  Bead:       0 x_centroid{angstrom}  cell{atomic_unit}
       C -3.36837e-01 -8.39083e-02  7.00786e-02
       O  8.45677e-01  2.39230e-01 -1.71879e-01
       H -9.38352e-02  7.54083e-01 -7.49400e-01
       H -4.85531e-01 -8.84600e-01  8.22020e-01
       L  7.64995e+01  5.85113e-01 -6.66653e-01
       L -6.69882e+00  1.07709e+01  3.36892e+00
6
# CELL(abcABC):  459.05226   459.05226   459.05226    90.00000    90.00000    90.00000  Step:          25  Bead:       0 x_centroid{angstrom}  cell{atomic_unit}
       C -3.33965e-01 -8.24614e-02  6.85988e-02
       O  8.44625e-01  2.38105e-01 -1.70767e-01
       H -1.02684e-01  7.55338e-01 -7.54821e-01
       H -4.94909e-01 -8.85317e-01  8.27502e-01
       L  7.72937e+01  6.51485e-01 -6.30000e-01
       L -6.21675e+00  1.08507e+01  3.19145e+00
6
# CELL(abcABC):  459.05226   459.05226   459.05226    90.00000    90.00000    90.00000  Step:          26  Bead:       0 x_centroid{angstrom}  cell{atomic_unit}
       C -3.31449e-01 -8.07615e-02  6.70889e-02
       O  8.44183e-01  2.36842e-01 -1.69575e-01
       H -1.16762e-01  7.54821e-01 -7.58930e-01
       H -5.04519e-01 -8.85055e-01  8.30773e-01
       L  7.80766e+01  6.57168e-01 -5.57877e-01
       L -5.67331e+00  1.09378e+01  2.95044e+00
6
# CELL(abcABC):  459.05226   459.05226   459.05226    90.00000    90.00000    90.00000  Step:          27  Bead:       0 x_centroid{angstrom}  cell{atomic_unit}
       C -3.28813e-01 -7.87887e-02  6.55189e-02
       O  8.43618e-01  2.35257e-01 -1.68442e-01
       H -1.31730e-01  7.54690e-01 -7.62390e-01
       H -5.12727e-01 -8.83300e-01  8.35068e-01
       L  7.88536e+01  6.51006e-01 -5.22295e-01
       L -5.07179e+00  1.09997e+01  2.69511e+00
6
# CELL(abcABC):  459.05226   459.05226   459.05226    90.00000    90.00000    90.00000  Step:          28  Bead:       0 x_centroid{angstrom}  cell{atomic_unit}
       C -3.25669e-01 -7.66375e-02  6.39854e-02
       O  8.42491e-01  2.33552e-01 -1.67352e-01
       H -1.44700e-01  7.53856e-01 -7.65101e-01
       H -5.20170e-01 -8.81043e-01  8.38877e-01
       L  7.97231e+01  6.29602e-01 -4.70623e-01
       L -4.41286e+00  1.10449e+01  2.43197e+00
6
# CELL(abcABC):  459.05226   459.05226   459.05226    90.00000    90.00000    90.00000  Step:          29  Bead:       0 x_centroid{angstrom}  cell{atomic_unit}
       C -3.22195e-01 -7.43425e-02  6.23243e-02
       O  8.40767e-01  2.31665e-01 -1.66241e-01
       H -1.55182e-01  7.54405e-01 -7.67064e-01
       H -5.24632e-01 -8.78979e-01  8.43124e-01
       L  8.07021e+01  5.98245e-01 -4.46288e-01
       L -3.68990e+00  1.10376e+01  2.15962e+00
6
# CELL(abcABC):  459.05226   459.05226   459.05226    90.00000    90.00000    90.00000  Step:          30  Bead:       0 x_centroid{angstrom}  cell{atomic_unit}
       C -3.18299e-01 -7.20044e-02  6.02673e-02
       O  8.38385e-01  2.29672e-01 -1.64837e-01
       H -1.60854e-01  7.55512e-01 -7.69247e-01
       H -5.28578e-01 -8.76308e-01  8.47659e-01
       L  8.17795e+01  5.76914e-01 -4.01915e-01
       L -2.94978e+00  1.10662e+01  1.89613e+00
6
# CELL(abcABC):  459.05226   459.05226   459.05226    90.00000    90.00000    90.00000  Step:          31  Bead:       0 x_centroid{angstrom}  cell{atomic_unit}
       C -3.14042e-01 -6.96131e-02  5.82144e-02
       O  8.35562e-01  2.27538e-01 -1.63497e-01
       H -1.64172e-01  7.56857e-01 -7.70012e-01
       H -5.32216e-01 -8.72290e-01  8.51754e-01
       L  8.29006e+01  5.38929e-01 -4.14010e-01
       L -2.16455e+00  1.11331e+01  1.65020e+00
6
# CELL(abcABC):  459.05226   459.05226   459.05226    90.00000    90.00000    90.00000  Step:          32  Bead:       0 x_centroid{angstrom}  cell{atomic_unit}
       C -3.09666e-01 -6.69100e-02  5.60901e-02
       O  8.32772e-01  2.25086e-01 -1.62201e-01
       H -1.69420e-01  7.57303e-01 -7.69641e-01
       H -5.35900e-01 -8.66056e-01  8.56260e-01
       L  8.40994e+01  5.25452e-01 -3.87798e-01
       L -1.38659e+00  1.11940e+01  1.36711e+00
6
# CELL(abcABC):  459.05226   459.05226   459.05226    90.00000    90.00000    90.00000  Step:          33  Bead:       0 x_centroid{angstrom}  cell{atomic_unit}
       C -3.05481e-01 -6.39770e-02  5.37202e-02
       O  8.30397e-01  2.22391e-01 -1.60709e-01
       H -1.78807e-01  7.56588e-01 -7.67359e-01
       H -5.39769e-01 -8.57532e-01  8.58688e-01
       L  8.53213e+01  5.46020e-01 -3.77951e-01
       L -6.10327e-01  1.12058e+01  1.06871e+00
6
# CELL(abcABC):  459.05226   459.05226   459.05226    90.00000    90.00000    90.00000  Step:          34  Bead:       0 x_centroid{angstrom}  cell{atomic_unit}
       C -3.01531e-01 -6.11861e-02  5.14112e-02
       O  8.28462e-01  2.19716e-01 -1.59166e-01
       H -1.93392e-01  7.55295e-01 -7.64248e-01
       H -5.42644e-01 -8.47048e-01  8.58762e-01
       L  8.65315e+01  5.65684e-01 -3.20667e-01
       L  2.21316e-01  1.12361e+01  7.10342e-01
6
# CELL(abcABC):  459.05226   459.05226   459.05226    90.00000    90.00000    90.00000  Step:          35  Bead:       0 x_centroid{angstrom}  cell{atomic_unit}
       C -2.97878e-01 -5.81954e-02  4.90395e-02
       O  8.26991e-01  2.16978e-01 -1.57417e-01
       H -2.12838e-01  7.51943e-01 -7.60529e-01
       H -5.44556e-01 -8.35839e-01  8.55686e-01
       L  8.78123e+01  5.44281e-01 -1.96829e-01
       L  1.10225e+00  1.11921e+01  3.29178e-01
6
# CELL(abcABC):  459.05226   459.05226   459.05226    90.00000    90.00000    90.00000  Step:          36  Bead:       0 x_centroid{angstrom}  cell{atomic_unit}
       C -2.93944e-01 -5.51558e-02  4.63950e-02
       O  8.25467e-01  2.14078e-01 -1.55412e-01
       H -2.35039e-01  7.49759e-01 -7.56839e-01
       H -5.46212e-01 -8.23802e-01  8.51822e-01
       L  8.91368e+01  5.03650e-01 -3.43096e-02
       L  1.90387e+00  1.11615e+01 -9.13565e-02
6
# CELL(abcABC):  459.05226   459.05226   459.05226    90.00000    90.00000    90.00000  Step:          37  Bead:       0 x_centroid{angstrom}  cell{atomic_unit}
       C -2.89746e-01 -5.18119e-02  4.36201e-02
       O  8.23716e-01  2.10845e-01 -1.53151e-01
       H -2.58574e-01  7.50055e-01 -7.55326e-01
       H -5.46081e-01 -8.12614e-01  8.47584e-01
       L  9.05636e+01  4.62267e-01  1.57509e-01
       L  2.64779e+00  1.11709e+01 -4.52821e-01
6
# CELL(abcABC):  459.05226   459.05226   459.05226    90.00000    90.00000    90.00000  Step:          38  Bead:       0 x_centroid{angstrom}  cell{atomic_unit}
       C -2.85009e-01 -4.84688e-02  4.04728e-02
       O  8.21577e-01  2.07579e-01 -1.50668e-01
       H -2.83821e-01  7.52172e-01 -7.55067e-01
       H -5.44593e-01 -8.02719e-01  8.45482e-01
       L  9.21835e+01  4.08854e-01  3.69033e-01
       L  3.36228e+00  1.12021e+01 -7.94993e-01
6
# CELL(abcABC):  459.05226   459.05226   459.05226    90.00000    90.00000    90.00000  Step:          39  Bead:       0 x_centroid{angstrom}  cell{atomic_unit}
       C -2.79838e-01 -4.51187e-02  3.74711e-02
       O  8.19173e-01  2.04161e-01 -1.48372e-01
       H -3.11192e-01  7.57114e-01 -7.55410e-01
       H -5.42011e-01 -7.93322e-01  8.45202e-01
       L  9.39566e+01  3.39022e-01  6.32498e-01
       L  4.04035e+00  1.12871e+01 -1.14136e+00
6
# CELL(abcABC):  459.05226   459.05226   459.05226    90.00000    90.00000    90.00000  Step:          40  Bead:       0 x_centroid{angstrom}  cell{atomic_unit}
       C -2.74258e-01 -4.15449e-02  3.39544e-02
       O  8.16781e-01  2.00447e-01 -1.45711e-01
       H -3.43878e-01  7.64048e-01 -7.56700e-01
       H -5.39267e-01 -7.83878e-01  8.46203e-01
       L  9.58413e+01  1.72220e-01  8.67823e-01
       L  4.75699e+00  1.14347e+01 -1.45701e+00
6
# CELL(abcABC):  459.05226   459.05226   459.05226    90.00000    90.00000    90.00000  Step:          41  Bead:       0 x_centroid{angstrom}  cell{atomic_unit}
       C -2.68382e-01 -3.73662e-02  3.00554e-02
       O  8.14772e-01  1.96332e-01 -1.42717e-01
       H -3.83060e-01  7.70335e-01 -7.59861e-01
       H -5.39662e-01 -7.74677e-01  8.48296e-01
       L  9.78318e+01  3.93747e-02  1.14036e+00
       L  5.43415e+00  1.16141e+01 -1.74035e+00
6
# CELL(abcABC):  459.05226   459.05226   459.05226    90.00000    90.00000    90.00000  Step:          42  Bead:       0 x_centroid{angstrom}  cell{atomic_unit}
       C -2.62351e-01 -3.27174e-02  2.61188e-02
       O  8.13164e-01  1.91790e-01 -1.39792e-01
       H -4.29193e-01  7.77741e-01 -7.63111e-01
       H -5.41341e-01 -7.65399e-01  8.52087e-01
       L  9.99687e+01 -1.17474e-01  1.35942e+00
       L  5.98615e+00  1.18112e+01 -2.05596e+00
6
# CELL(abcABC):  459.05226   459.05226   459.05226    90.00000    90.00000    90.00000  Step:          43  Bead:       0 x_centroid{angstrom}  cell{atomic_unit}
       C -2.56198e-01 -2.75026e-02  2.18519e-02
       O  8.12115e-01  1.86730e-01 -1.36728e-01
       H -4.84404e-01  7.85330e-01 -7.65335e-01
       H -5.44262e-01 -7.54886e-01  8.56610e-01
       L  1.02185e+02 -2.86267e-01  1.51093e+00
       L  6.48054e+00  1.21213e+01 -2.39770e+00
6
# CELL(abcABC):  459.05226   459.05226   459.05226    90.00000    90.00000    90.00000  Step:          44  Bead:       0 x_centroid{angstrom}  cell{atomic_unit}
       C -2.50718e-01 -2.15083e-02  1.75326e-02
       O  8.12241e-01  1.81143e-01 -1.33763e-01
       H -5.47232e-01  7.91756e-01 -7.65771e-01
       H -5.50202e-01 -7.44189e-01  8.61535e-01
       L  1.04460e+02 -4.21190e-01  1.66457e+00
       L  6.89051e+00  1.24897e+01 -2.70135e+00
6
# CELL(abcABC):  459.05226   459.05226   459.05226    90.00000    90.00000    90.00000  Step:          45  Bead:       0 x_centroid{angstrom}  cell{atomic_unit}
       C -2.46387e-01 -1.51236e-02  1.29141e-02
       O  8.13968e-01  1.75467e-01 -1.30851e-01
       H -6.19308e-01  7.94587e-01 -7.62802e-01
       H -5.58560e-01 -7.33172e-01  8.67460e-01
       L  1.06755e+02 -5.44056e-01  1.76359e+00
       L  7.18636e+00  1.29331e+01 -2.94568e+00
6
# CELL(abcABC):  459.05226   459.05226   459.05226    90.00000    90.00000    90.00000  Step:          46  Bead:       0 x_centroid{angstrom}  cell{atomic_unit}
       C -2.43664e-01 -8.11272e-03  7.96746e-03
       O  8.17499e-01  1.69500e-01 -1.27982e-01
       H -6.98233e-01  7.93934e-01 -7.56121e-01
       H -5.69530e-01 -7.21554e-01  8.74277e-01
       L  1.09078e+02 -6.98237e-01  1.82931e+00
       L  7.44254e+00  1.34816e+01 -3.19111e+00
6
# CELL(abcABC):  459.05226   459.05226   459.05226    90.00000    90.00000    90.00000  Step:          47  Bead:       0 x_centroid{angstrom}  cell{atomic_unit}
       C -2.42949e-01 -6.06598e-04  2.56997e-03
       O  8.23014e-01  1.63305e-01 -1.25062e-01
       H -7.81865e-01  7.88652e-01 -7.43313e-01
       H -5.83393e-01 -7.07631e-01  8.79518e-01
       L  1.11479e+02 -8.10296e-01  1.89733e+00
       L  7.65656e+00  1.40494e+01 -3.40777e+00
6
# CELL(abcABC):  459.05226   459.05226   459.05226    90.00000    90.00000    90.00000  Step:          48  Bead:       0 x_centroid{angstrom}  cell{atomic_unit}
       C -2.44141e-01  7.38658e-03 -2.83218e-03
       O  8.30367e-01  1.57033e-01 -1.22295e-01
       H -8.69701e-01  7.76531e-01 -7.24689e-01
       H -5.99460e-01 -6.91447e-01  8.81433e-01
       L  1.13929e+02 -9.29358e-01  1.95225e+00
       L  7.76581e+00  1.46333e+01 -3.62453e+00
6
# CELL(abcABC):  459.05226   459.05226   459.05226    90.00000    90.00000    90.00000  Step:          49  Bead:       0 x_centroid{angstrom}  cell{atomic_unit}
       C -2.47530e-01  1.56309e-02 -8.16990e-03
       O  8.39476e-01  1.50764e-01 -1.19684e-01
       H -9.58596e-01  7.58315e-01 -7.00410e-01
       H -6.16176e-01 -6.72219e-01  8.79425e-01
       L  1.16429e+02 -1.07425e+00  1.98138e+00
       L  7.83458e+00  1.52388e+01 -3.84689e+00
6
# CELL(abcABC):  459.05226   459.05226   459.05226    90.00000    90.00000    90.00000  Step:          50  Bead:       0 x_centroid{angstrom}  cell{atomic_unit}
       C -2.52701e-01  2.42603e-02 -1.31786e-02
       O  8.49959e-01  1.44469e-01 -1.17214e-01
       H -1.04495e+00  7.33297e-01 -6.71870e-01
       H -6.35973e-01 -6.50386e-01  8.71414e-01
       L  1.18939e+02 -1.19731e+00  2.02872e+00
       L  7.85504e+00  1.58745e+01 -4.00230e+00
6
# CELL(abcABC):  459.05226   459.05226   459.05226    90.00000    90.00000    90.00000  Step:          51  Bead:       0 x_centroid{angstrom}  cell{atomic_unit}
       C -2.59081e-01  3.26378e-02 -1.75094e-02
       O  8.61137e-01  1.38437e-01 -1.15317e-01
       H -1.12776e+00  7.03886e-01 -6.38943e-01
       H -6.55953e-01 -6.25345e-01  8.60005e-01
       L  1.21499e+02 -1.33917e+00  2.07470e+00
       L  7.83691e+00  1.65445e+01 -4.07992e+00
6
# CELL(abcABC):  459.05226   459.05226   459.05226    90.00000    90.00000    90.00000  Step:          52  Bead:       0 x_centroid{angstrom}  cell{atomic_unit}
       C -2.65450e-01  4.07809e-02 -2.12956e-02
       O  8.72050e-01  1.32494e-01 -1.13629e-01
       H -1.20557e+00  6.73080e-01 -6.04853e-01
       H -6.76850e-01 -5.97520e-01  8.44249e-01
       L  1.24109e+02 -1.44537e+00  2.09208e+00
       L  7.74650e+00  1.71869e+01 -4.11326e+00
6
# CELL(abcABC):  459.05226   459.05226   459.05226    90.00000    90.00000    90.00000  Step:          53  Bead:       0 x_centroid{angstrom}  cell{atomic_unit}
       C -2.70693e-01  4.86408e-02 -2.44899e-02
       O  8.81863e-01  1.26788e-01 -1.12193e-01
       H -1.27886e+00  6.41079e-01 -5.70972e-01
       H -6.98192e-01 -5.68858e-01  8.25613e-01
       L  1.26728e+02 -1.51068e+00  2.08619e+00
       L  7.58220e+00  1.77066e+01 -4.08873e+00
6
# CELL(abcABC):  459.05226   459.05226   459.05226    90.00000    90.00000    90.00000  Step:          54  Bead:       0 x_centroid{angstrom}  cell{atomic_unit}
       C -2.74512e-01  5.61501e-02 -2.72418e-02
       O  8.90344e-01  1.21317e-01 -1.10850e-01
       H -1.34699e+00  6.08633e-01 -5.36583e-01
       H -7.20520e-01 -5.39262e-01  8.02662e-01
       L  1.29400e+02 -1.59392e+00  2.11414e+00
       L  7.39398e+00  1.81771e+01 -4.02874e+00
6
# CELL(abcABC):  459.05226   459.05226   459.05226    90.00000    90.00000    90.00000  Step:          55  Bead:       0 x_centroid{angstrom}  cell{atomic_unit}
       C -2.76354e-01  6.28257e-02 -2.92295e-02
       O  8.97006e-01  1.16390e-01 -1.09890e-01
       H -1.41068e+00  5.76786e-01 -5.04470e-01
       H -7.42025e-01 -5.08929e-01  7.78917e-01
       L  1.32199e+02 -1.66737e+00  2.14095e+00
       L  7.15624e+00  1.85603e+01 -3.92411e+00
6
# CELL(abcABC):  459.05226   459.05226   459.05226    90.00000    90.00000    90.00000  Step:          56  Bead:       0 x_centroid{angstrom}  cell{atomic_unit}
       C -2.76472e-01  6.85615e-02 -3.01667e-02
       O  9.01971e-01  1.12042e-01 -1.09531e-01
       H -1.46827e+00  5.47329e-01 -4.74531e-01
       H -7.63273e-01 -4.78959e-01  7.54370e-01
       L  1.35107e+02 -1.66385e+00  2.14354e+00
       L  6.86672e+00  1.88673e+01 -3.77007e+00
6
# CELL(abcABC):  459.05226   459.05226   459.05226    90.00000    90.00000    90.00000  Step:          57  Bead:       0 x_centroid{angstrom}  cell{atomic_unit}
       C -2.75358e-01  7.38036e-02 -3.07748e-02
       O  9.05609e-01  1.08047e-01 -1.09199e-01
       H -1.52032e+00  5.19865e-01 -4.49173e-01
       H -7.83657e-01 -4.50739e-01  7.30867e-01
       L  1.38098e+02 -1.61406e+00  2.12544e+00
       L  6.48894e+00  1.91467e+01 -3.54879e+00
6
# CELL(abcABC):  459.05226   459.05226   459.05226    90.00000    90.00000    90.00000  Step:          58  Bead:       0 x_centroid{angstrom}  cell{atomic_unit}
       C -2.74022e-01  7.88233e-02 -3.08409e-02
       O  9.08585e-01  1.04249e-01 -1.09125e-01
       H -1.56406e+00  4.94084e-01 -4.28959e-01
       H -8.04489e-01 -4.24676e-01  7.10175e-01
       L  1.41092e+02 -1.52730e+00  2.05208e+00
       L  6.09050e+00  1.94160e+01 -3.30152e+00
6
# CELL(abcABC):  459.05226   459.05226   459.05226    90.00000    90.00000    90.00000  Step:          59  Bead:       0 x_centroid{angstrom}  cell{atomic_unit}
       C -2.73581e-01  8.41867e-02 -3.08165e-02
       O  9.11311e-01  1.00504e-01 -1.09201e-01
       H -1.59562e+00  4.68976e-01 -4.11785e-01
       H -8.22804e-01 -4.04187e-01  6.93840e-01
       L  1.44062e+02 -1.41093e+00  1.95552e+00
       L  5.61240e+00  1.95975e+01 -3.05069e+00
6
# CELL(abcABC):  459.05226   459.05226   459.05226    90.00000    90.00000    90.00000  Step:          60  Bead:       0 x_centroid{angstrom}  cell{atomic_unit}
       C -2.74721e-01  8.97526e-02 -3.09586e-02
       O  9.14227e-01  9.69360e-02 -1.09546e-01
       H -1.61326e+00  4.45691e-01 -3.95302e-01
       H -8.39192e-01 -3.90735e-01  6.84422e-01
       L  1.47003e+02 -1.30598e+00  1.86417e+00
       L  5.09000e+00  1.97533e+01 -2.78019e+00
6
# CELL(abcABC):  459.05226   459.05226   459.05226    90.00000    90.00000    90.00000  Step:          61  Bead:       0 x_centroid{angstrom}  cell{atomic_unit}
       C -2.77645e-01  9.54296e-02 -3.11805e-02
       O  9.17336e-01  9.34924e-02 -1.10089e-01
       H -1.61502e+00  4.24738e-01 -3.82400e-01
       H -8.53177e-01 -3.82937e-01  6.82718e-01
       L  1.49825e+02 -1.13988e+00  1.70580e+00
       L  4.55014e+00  1.98989e+01 -2.51190e+00
6
# CELL(abcABC):  459.05226   459.05226   459.05226    90.00000    90.00000    90.00000  Step:          62  Bead:       0 x_centroid{angstrom}  cell{atomic_unit}
       C -2.82135e-01  1.01271e-01 -3.15263e-02
       O  9.20609e-01  9.01813e-02 -1.10668e-01
       H -1.60396e+00  4.05966e-01 -3.74395e-01
       H -8.63922e-01 -3.81359e-01  6.88030e-01
       L  1.52614e+02 -9.54068e-01  1.44229e+00
       L  4.01353e+00  1.99842e+01 -2.24957e+00
6
# CELL(abcABC):  459.05226   459.05226   459.05226    90.00000    90.00000    90.00000  Step:          63  Bead:       0 x_centroid{angstrom}  cell{atomic_unit}
       C -2.87161e-01  1.06440e-01 -3.14701e-02
       O  9.23447e-01  8.73864e-02 -1.11473e-01
       H -1.58412e+00  3.91378e-01 -3.73094e-01
       H -8.70148e-01 -3.84156e-01  6.98805e-01
       L  1.55473e+02 -7.27149e-01  1.20634e+00
       L  3.41370e+00  2.00468e+01 -1.93902e+00
6
# CELL(abcABC):  459.05226   459.05226   459.05226    90.00000    90.00000    90.00000  Step:          64  Bead:       0 x_centroid{angstrom}  cell{atomic_unit}
       C -2.91595e-01  1.10170e-01 -3.05393e-02
       O  9.25204e-01  8.55594e-02 -1.12690e-01
       H -1.55769e+00  3.82679e-01 -3.78556e-01
       H -8.72887e-01 -3.91000e-01  7.12436e-01
       L  1.58382e+02 -4.77438e-01  9.47647e-01
       L  2.79247e+00  1.99719e+01 -1.58132e+00
6
# CELL(abcABC):  459.05226   459.05226   459.05226    90.00000    90.00000    90.00000  Step:          65  Bead:       0 x_centroid{angstrom}  cell{atomic_unit}
       C -2.94766e-01  1.12211e-01 -2.86226e-02
       O  9.25303e-01  8.47572e-02 -1.14176e-01
       H -1.52652e+00  3.79841e-01 -3.91868e-01
       H -8.69067e-01 -3.99818e-01  7.26443e-01
       L  1.61342e+02 -1.71118e-01  7.10371e-01
       L  2.12090e+00  1.97933e+01 -1.23613e+00
6
# CELL(abcABC):  459.05226   459.05226   459.05226    90.00000    90.00000    90.00000  Step:          66  Bead:       0 x_centroid{angstrom}  cell{atomic_unit}
       C -2.96819e-01  1.12599e-01 -2.54475e-02