6
# CELL(abcABC):  459.05226   459.05226   459.05226    90.00000    90.00000    90.00000  Step:           0  Bead:       0 x_centroid{angstrom}  cell{atomic_unit}
       C -3.39887e-01 -1.13437e-01  8.06659e-02
       O  8.43483e-01  2.62672e-01 -1.81512e-01
       H -7.35799e-02  8.16467e-01 -6.61432e-01
       H -4.30016e-01 -9.65701e-01  7.62278e-01
       L  6.13458e+01  0.00000e+00  0.00000e+00
       L  0.00000e+00  8.59064e+00  0.00000e+00
6
# CELL(abcABC):  459.05226   459.05226   459.05226    90.00000    90.00000    90.00000  Step:           1  Bead:       0 x_centroid{angstrom}  cell{atomic_unit}
       C -3.40092e-01 -1.10834e-01  8.19854e-02
       O  8.42804e-01  2.59790e-01 -1.83213e-01
       H -6.90198e-02  8.10367e-01 -6.49606e-01
       H -4.21364e-01 -9.44908e-01  7.61690e-01
       L  6.16064e+01 -3.64780e-01 -8.39723e-02
       L -2.39896e-01  9.00254e+00  1.30799e-01
6
# CELL(abcABC):  459.05226   459.05226   459.05226    90.00000    90.00000    90.00000  Step:           2  Bead:       0 x_centroid{angstrom}  cell{atomic_unit}
       C -3.40537e-01 -1.08236e-01  8.32323e-02
       O  8.42465e-01  2.56922e-01 -1.84796e-01
       H -6.61267e-02  8.05204e-01 -6.39644e-01
       H -4.13600e-01 -9.25249e-01  7.61964e-01
       L  6.18699e+01 -7.10172e-01 -1.63022e-01
       L -4.62330e-01  9.47456e+00  2.75334e-01
6
# CELL(abcABC):  459.05226   459.05226   459.05226    90.00000    90.00000    90.00000  Step:           3  Bead:       0 x_centroid{angstrom}  cell{atomic_unit}
       C -3.41064e-01 -1.05494e-01  8.42080e-02
       O  8.42261e-01  2.54036e-01 -1.86230e-01
       H -6.32811e-02  8.01639e-01 -6.30611e-01
       H -4.06901e-01 -9.08640e-01  7.63974e-01
       L  6.21100e+01 -1.03665e+00 -1.88502e-01
       L -7.27735e-01  9.98726e+00  4.74171e-01
6
# CELL(abcABC):  459.05226   459.05226   459.05226    90.00000    90.00000    90.00000  Step:           4  Bead:       0 x_centroid{angstrom}  cell{atomic_unit}
       C -3.41730e-01 -1.02580e-01  8.49627e-02
       O  8.42546e-01  2.51015e-01 -1.87627e-01
       H -6.51241e-02  8.00357e-01 -6.23342e-01
       H -4.01651e-01 -8.94220e-01  7.69844e-01
       L  6.23076e+01 -1.38660e+00 -2.72821e-01
       L -9.46700e-01  1.05132e+01  6.42564e-01
6
# CELL(abcABC):  459.05226   459.05226   459.05226    90.00000    90.00000    90.00000  Step:           5  Bead:       0 x_centroid{angstrom}  cell{atomic_unit}
       C -3.42625e-01 -9.96139e-02  8.57379e-02
       O  8.43424e-01  2.47852e-01 -1.89142e-01
       H -7.10093e-02  8.02073e-01 -6.18116e-01
       H -3.99016e-01 -8.81210e-01  7.79381e-01
       L  6.24355e+01 -1.71865e+00 -3.73864e-01
       L -1.09975e+00  1.10811e+01  8.40815e-01
6
# CELL(abcABC):  459.05226   459.05226   459.05226    90.00000    90.00000    90.00000  Step:           6  Bead:       0 x_centroid{angstrom}  cell{atomic_unit}
       C -3.43577e-01 -9.64913e-02  8.63338e-02
       O  8.44508e-01  2.44692e-01 -1.90588e-01
       H -7.81080e-02  8.05783e-01 -6.14516e-01
       H -3.97784e-01 -8.72136e-01  7.91632e-01
       L  6.25884e+01 -2.00817e+00 -5.00738e-01
       L -1.23591e+00  1.16695e+01  9.65273e-01
6
# CELL(abcABC):  459.05226   459.05226   459.05226    90.00000    90.00000    90.00000  Step:           7  Bead:       0 x_centroid{angstrom}  cell{atomic_unit}
       C -3.44191e-01 -9.31674e-02  8.65577e-02
       O  8.45387e-01  2.41575e-01 -1.91789e-01
       H -8.42980e-02  8.09925e-01 -6.12356e-01
       H -3.98267e-01 -8.66598e-01  8.05865e-01
       L  6.27617e+01 -2.27506e+00 -6.26815e-01
       L -1.36305e+00  1.22903e+01  1.10091e+00
6
# CELL(abcABC):  459.05226   459.05226   459.05226    90.00000    90.00000    90.00000  Step:           8  Bead:       0 x_centroid{angstrom}  cell{atomic_unit}
       C -3.45037e-01 -8.98270e-02  8.69781e-02
       O  8.46250e-01  2.38793e-01 -1.93256e-01
       H -8.62557e-02  8.13273e-01 -6.10404e-01
       H -3.99965e-01 -8.65743e-01  8.22162e-01
       L  6.29488e+01 -2.52999e+00 -7.28739e-01
       L -1.46766e+00  1.28199e+01  1.23134e+00
6
# CELL(abcABC):  459.05226   459.05226   459.05226    90.00000    90.00000    90.00000  Step:           9  Bead:       0 x_centroid{angstrom}  cell{atomic_unit}
       C -3.45516e-01 -8.62609e-02  8.73599e-02
       O  8.46712e-01  2.36115e-01 -1.94704e-01
       H -8.53567e-02  8.14937e-01 -6.08086e-01
       H -4.02576e-01 -8.67544e-01  8.38238e-01
       L  6.32175e+01 -2.71677e+00 -7.59340e-01
       L -1.56506e+00  1.33031e+01  1.34220e+00
6
# CELL(abcABC):  459.05226   459.05226   459.05226    90.00000    90.00000    90.00000  Step:          10  Bead:       0 x_centroid{angstrom}  cell{atomic_unit}
       C -3.46137e-01 -8.26270e-02  8.79315e-02
       O  8.47223e-01  2.33633e-01 -1.96221e-01
       H -8.34430e-02  8.14131e-01 -6.04943e-01
       H -4.05334e-01 -8.70782e-01  8.52353e-01
       L  6.35278e+01 -2.86783e+00 -8.06829e-01
       L -1.64379e+00  1.37085e+01  1.40667e+00
6
# CELL(abcABC):  459.05226   459.05226   459.05226    90.00000    90.00000    90.00000  Step:          11  Bead:       0 x_centroid{angstrom}  cell{atomic_unit}
       C -3.46554e-01 -7.92751e-02  8.89417e-02
       O  8.47745e-01  2.31547e-01 -1.97845e-01
       H -8.20677e-02  8.10571e-01 -6.01277e-01
       H -4.10151e-01 -8.74155e-01  8.62436e-01
       L  6.38190e+01 -2.97889e+00 -8.47568e-01
       L -1.70423e+00  1.40141e+01  1.45149e+00
6
# CELL(abcABC):  459.05226   459.05226   459.05226    90.00000    90.00000    90.00000  Step:          12  Bead:       0 x_centroid{angstrom}  cell{atomic_unit}
       C -3.46668e-01 -7.59063e-02  9.02380e-02
       O  8.48152e-01  2.29577e-01 -1.99558e-01
       H -8.08268e-02  8.04423e-01 -5.96788e-01
       H -4.16666e-01 -8.76973e-01  8.69711e-01
       L  6.41409e+01 -3.06608e+00 -8.81891e-01
       L -1.71624e+00  1.42712e+01  1.45161e+00
6
# CELL(abcABC):  459.05226   459.05226   459.05226    90.00000    90.00000    90.00000  Step:          13  Bead:       0 x_centroid{angstrom}  cell{atomic_unit}
       C -3.46902e-01 -7.30608e-02  9.22268e-02
       O  8.48868e-01  2.27964e-01 -2.01441e-01
       H -8.05735e-02  7.97491e-01 -5.93557e-01
       H -4.25723e-01 -8.78435e-01  8.72710e-01
       L  6.45239e+01 -3.09831e+00 -9.36270e-01
       L -1.69757e+00  1.44577e+01  1.43149e+00
6
# CELL(abcABC):  459.05226   459.05226   459.05226    90.00000    90.00000    90.00000  Step:          14  Bead:       0 x_centroid{angstrom}  cell{atomic_unit}
       C -3.47334e-01 -7.05409e-02  9.47773e-02
       O  8.49676e-01  2.26533e-01 -2.03374e-01
       H -7.93876e-02  7.89391e-01 -5.91426e-01
       H -4.34803e-01 -8.77697e-01  8.70909e-01
       L  6.49506e+01 -3.13564e+00 -9.44701e-01
       L -1.70467e+00  1.45810e+01  1.37063e+00
6
# CELL(abcABC):  459.05226   459.05226   459.05226    90.00000    90.00000    90.00000  Step:          15  Bead:       0 x_centroid{angstrom}  cell{atomic_unit}
       C -3.47835e-01 -6.85547e-02  9.76368e-02
       O  8.50383e-01  2.25328e-01 -2.05178e-01
       H -7.62330e-02  7.83097e-01 -5.92881e-01
       H -4.43435e-01 -8.76033e-01  8.66978e-01
       L  6.53755e+01 -3.09417e+00 -9.74654e-01
       L -1.70762e+00  1.47075e+01  1.30455e+00
6
# CELL(abcABC):  459.05226   459.05226   459.05226    90.00000    90.00000    90.00000  Step:          16  Bead:       0 x_centroid{angstrom}  cell{atomic_unit}
       C -3.48217e-01 -6.70388e-02  1.01088e-01
       O  8.50912e-01  2.24263e-01 -2.07149e-01
       H -7.15014e-02  7.78592e-01 -5.97653e-01
       H -4.52280e-01 -8.72766e-01  8.61953e-01
       L  6.57943e+01 -3.02424e+00 -9.47038e-01
       L -1.66578e+00  1.47781e+01  1.19313e+00
6
# CELL(abcABC):  459.05226   459.05226   459.05226    90.00000    90.00000    90.00000  Step:          17  Bead:       0 x_centroid{angstrom}  cell{atomic_unit}
       C -3.48684e-01 -6.59553e-02  1.05312e-01
       O  8.51437e-01  2.23321e-01 -2.09341e-01
       H -6.73313e-02  7.76453e-01 -6.04936e-01
       H -4.59540e-01 -8.68633e-01  8.53682e-01
       L  6.63318e+01 -2.93145e+00 -8.50823e-01
       L -1.60523e+00  1.47848e+01  1.12767e+00
6
# CELL(abcABC):  459.05226   459.05226   459.05226    90.00000    90.00000    90.00000  Step:          18  Bead:       0 x_centroid{angstrom}  cell{atomic_unit}
       C -3.48798e-01 -6.50103e-02  1.09703e-01
       O  8.51543e-01  2.22290e-01 -2.11442e-01
       H -6.16216e-02  7.77150e-01 -6.15134e-01
       H -4.65913e-01 -8.64270e-01  8.44876e-01
       L  6.68950e+01 -2.80129e+00 -7.37342e-01
       L -1.54977e+00  1.47368e+01  1.08016e+00
6
# CELL(abcABC):  459.05226   459.05226   459.05226    90.00000    90.00000    90.00000  Step:          19  Bead:       0 x_centroid{angstrom}  cell{atomic_unit}
       C -3.48872e-01 -6.45508e-02  1.14133e-01
       O  8.51663e-01  2.21381e-01 -2.13331e-01
       H -5.79904e-02  7.80663e-01 -6.28414e-01
       H -4.70890e-01 -8.58886e-01  8.35311e-01
       L  6.75023e+01 -2.64367e+00 -6.46294e-01
       L -1.52108e+00  1.46649e+01  1.04981e+00
6
# CELL(abcABC):  459.05226   459.05226   459.05226    90.00000    90.00000    90.00000  Step:          20  Bead:       0 x_centroid{angstrom}  cell{atomic_unit}
       C -3.48945e-01 -6.39836e-02  1.18738e-01
       O  8.51990e-01  2.20329e-01 -2.15263e-01
       H -5.66747e-02  7.85576e-01 -6.44196e-01
       H -4.76864e-01 -8.53930e-01  8.26851e-01
       L  6.80723e+01 -2.40228e+00 -5.57258e-01
       L -1.49020e+00  1.45749e+01  1.00774e+00
6
# CELL(abcABC):  459.05226   459.05226   459.05226    90.00000    90.00000    90.00000  Step:          21  Bead:       0 x_centroid{angstrom}  cell{atomic_unit}
       C -3.49087e-01 -6.31801e-02  1.23276e-01
       O  8.52494e-01  2.19143e-01 -2.17092e-01
       H -5.69614e-02  7.92339e-01 -6.60627e-01
       H -4.83267e-01 -8.51520e-01  8.18235e-01
       L  6.86577e+01 -2.13457e+00 -4.82179e-01
       L -1.39158e+00  1.44482e+01  9.70659e-01
6
# CELL(abcABC):  459.05226   459.05226   459.05226    90.00000    90.00000    90.00000  Step:          22  Bead:       0 x_centroid{angstrom}  cell{atomic_unit}
       C -3.48991e-01 -6.22983e-02  1.27298e-01
       O  8.52915e-01  2.18232e-01 -2.18595e-01
       H -5.90899e-02  7.97704e-01 -6.77259e-01
       H -4.89352e-01 -8.53029e-01  8.10794e-01
       L  6.92563e+01 -1.83354e+00 -4.24893e-01
       L -1.27135e+00  1.43240e+01  9.00577e-01
6
# CELL(abcABC):  459.05226   459.05226   459.05226    90.00000    90.00000    90.00000  Step:          23  Bead:       0 x_centroid{angstrom}  cell{atomic_unit}
       C -3.48878e-01 -6.08994e-02  1.30910e-01
       O  8.53444e-01  2.17246e-01 -2.19977e-01
       H -6.16636e-02  8.00774e-01 -6.92256e-01
       H -4.96867e-01 -8.57245e-01  8.04682e-01
       L  6.98380e+01 -1.48709e+00 -3.18293e-01
       L -1.19937e+00  1.41967e+01  8.03187e-01
6
# CELL(abcABC):  459.05226   459.05226   459.05226    90.00000    90.00000    90.00000  Step:          24  Bead:       0 x_centroid{angstrom}  cell{atomic_unit}
       C -3.48774e-01 -5.86359e-02  1.34254e-01
       O  8.54072e-01  2.16016e-01 -2.21325e-01
       H -6.48543e-02  8.01764e-01 -7.05966e-01
       H -5.05275e-01 -8.65802e-01  7.99902e-01
       L  7.04483e+01 -1.12902e+00 -1.75535e-01
       L -1.09649e+00  1.40805e+01  7.37264e-01
6
# CELL(abcABC):  459.05226   459.05226   459.05226    90.00000    90.00000    90.00000  Step:          25  Bead:       0 x_centroid{angstrom}  cell{atomic_unit}
       C -3.48510e-01 -5.63606e-02  1.37424e-01
       O  8.54582e-01  2.15002e-01 -2.22753e-01
       H -6.76406e-02  8.01788e-01 -7.18929e-01
       H -5.14114e-01 -8.76975e-01  7.97728e-01
       L  7.10682e+01 -8.01907e-01 -8.41500e-03
       L -1.03757e+00  1.39784e+01  6.40004e-01
6
# CELL(abcABC):  459.05226   459.05226   459.05226    90.00000    90.00000    90.00000  Step:          26  Bead:       0 x_centroid{angstrom}  cell{atomic_unit}
       C -3.47952e-01 -5.39579e-02  1.40332e-01
       O  8.54844e-01  2.14118e-01 -2.24010e-01
       H -6.89064e-02  7.99396e-01 -7.30156e-01
       H -5.24029e-01 -8.89291e-01  7.94223e-01
       L  7.16824e+01 -5.05468e-01  1.74987e-01
       L -9.53332e-01  1.38797e+01  5.16359e-01
6
# CELL(abcABC):  459.05226   459.05226   459.05226    90.00000    90.00000    90.00000  Step:          27  Bead:       0 x_centroid{angstrom}  cell{atomic_unit}
       C -3.47099e-01 -5.13503e-02  1.42775e-01
       O  8.54820e-01  2.13336e-01 -2.25015e-01
       H -6.89092e-02  7.93045e-01 -7.39222e-01
       H -5.34182e-01 -9.01668e-01  7.90147e-01
       L  7.23144e+01 -1.80780e-01  2.99204e-01
       L -9.12200e-01  1.36990e+01  3.69261e-01
6
# CELL(abcABC):  459.05226   459.05226   459.05226    90.00000    90.00000    90.00000  Step:          28  Bead:       0 x_centroid{angstrom}  cell{atomic_unit}
       C -3.46127e-01 -4.88140e-02  1.44975e-01
       O  8.54524e-01  2.12696e-01 -2.26162e-01
       H -6.80553e-02  7.85391e-01 -7.45371e-01
       H -5.42238e-01 -9.14160e-01  7.88291e-01
       L  7.29277e+01  9.93425e-02  4.54577e-01
       L -9.20793e-01  1.35592e+01  1.97599e-01
6
# CELL(abcABC):  459.05226   459.05226   459.05226    90.00000    90.00000    90.00000  Step:          29  Bead:       0 x_centroid{angstrom}  cell{atomic_unit}
       C -3.45374e-01 -4.57445e-02  1.47034e-01
       O  8.54372e-01  2.11751e-01 -2.27260e-01
       H -6.92766e-02  7.77051e-01 -7.49990e-01
       H -5.47901e-01 -9.27408e-01  7.85816e-01
       L  7.35327e+01  3.35295e-01  5.98293e-01
       L -9.25814e-01  1.33544e+01  4.17757e-02
6
# CELL(abcABC):  459.05226   459.05226   459.05226    90.00000    90.00000    90.00000  Step:          30  Bead:       0 x_centroid{angstrom}  cell{atomic_unit}
       C -3.44872e-01 -4.25125e-02  1.49231e-01
       O  8.54545e-01  2.10668e-01 -2.28556e-01
       H -7.34828e-02  7.67627e-01 -7.52094e-01
       H -5.52761e-01 -9.39334e-01  7.82342e-01
       L  7.40952e+01  5.45181e-01  7.23583e-01
       L -8.63144e-01  1.32004e+01 -1.51783e-01
6
# CELL(abcABC):  459.05226   459.05226   459.05226    90.00000    90.00000    90.00000  Step:          31  Bead:       0 x_centroid{angstrom}  cell{atomic_unit}
       C -3.44600e-01 -3.90985e-02  1.51398e-01
       O  8.55011e-01  2.09214e-01 -2.29848e-01
       H -8.12924e-02  7.60228e-01 -7.53481e-01
       H -5.55968e-01 -9.49556e-01  7.78489e-01
       L  7.46674e+01  6.86466e-01  8.18459e-01
       L -7.44403e-01  1.30881e+01 -3.65685e-01
6
# CELL(abcABC):  459.05226   459.05226   459.05226    90.00000    90.00000    90.00000  Step:          32  Bead:       0 x_centroid{angstrom}  cell{atomic_unit}
       C -3.43974e-01 -3.53887e-02  1.53007e-01
       O  8.55294e-01  2.07334e-01 -2.30738e-01
       H -9.08915e-02  7.53770e-01 -7.54526e-01
       H -5.58706e-01 -9.57533e-01  7.74605e-01
       L  7.52186e+01  8.23073e-01  8.13973e-01
       L -5.96933e-01  1.30641e+01 -5.92832e-01
6
# CELL(abcABC):  459.05226   459.05226   459.05226    90.00000    90.00000    90.00000  Step:          33  Bead:       0 x_centroid{angstrom}  cell{atomic_unit}
       C -3.43127e-01 -3.15201e-02  1.54022e-01
       O  8.55091e-01  2.05165e-01 -2.31200e-01
       H -9.91251e-02  7.49285e-01 -7.54919e-01
       H -5.57758e-01 -9.64767e-01  7.70312e-01
       L  7.58210e+01  8.99492e-01  8.33530e-01
       L -4.47125e-01  1.31035e+01 -7.51486e-01
6
# CELL(abcABC):  459.05226   459.05226   459.05226    90.00000    90.00000    90.00000  Step:          34  Bead:       0 x_centroid{angstrom}  cell{atomic_unit}
       C -3.41683e-01 -2.76292e-02  1.55115e-01
       O  8.54289e-01  2.02718e-01 -2.31813e-01
       H -1.05849e-01  7.46689e-01 -7.53884e-01
       H -5.55950e-01 -9.69786e-01  7.66098e-01
       L  7.64574e+01  9.62361e-01  8.45761e-01
       L -2.82200e-01  1.31875e+01 -9.70140e-01
6
# CELL(abcABC):  459.05226   459.05226   459.05226    90.00000    90.00000    90.00000  Step:          35  Bead:       0 x_centroid{angstrom}  cell{atomic_unit}
       C -3.39747e-01 -2.38457e-02  1.55973e-01
       O  8.52930e-01  2.00018e-01 -2.32199e-01
       H -1.11596e-01  7.47443e-01 -7.53593e-01
       H -5.52119e-01 -9.72874e-01  7.61814e-01
       L  7.71251e+01  1.05790e+00  8.78913e-01
       L -1.54645e-01  1.32912e+01 -1.21324e+00
6
# CELL(abcABC):  459.05226   459.05226   459.05226    90.00000    90.00000    90.00000  Step:          36  Bead:       0 x_centroid{angstrom}  cell{atomic_unit}
       C -3.37474e-01 -2.00149e-02  1.56246e-01
       O  8.51291e-01  1.97073e-01 -2.32219e-01
       H -1.17369e-01  7.50128e-01 -7.52352e-01
       H -5.47884e-01 -9.74561e-01  7.57768e-01
       L  7.78215e+01  1.14738e+00  9.06096e-01
       L -5.39342e-03  1.33945e+01 -1.45856e+00
6
# CELL(abcABC):  459.05226   459.05226   459.05226    90.00000    90.00000    90.00000  Step:          37  Bead:       0 x_centroid{angstrom}  cell{atomic_unit}
       C -3.35018e-01 -1.61307e-02  1.56355e-01
       O  8.49438e-01  1.93870e-01 -2.32104e-01
       H -1.23936e-01  7.54822e-01 -7.50389e-01
       H -5.41612e-01 -9.74798e-01  7.52787e-01
       L  7.85157e+01  1.20153e+00  9.28659e-01
       L  1.33192e-01  1.35402e+01 -1.69569e+00
6
# CELL(abcABC):  459.05226   459.05226   459.05226    90.00000    90.00000    90.00000  Step:          38  Bead:       0 x_centroid{angstrom}  cell{atomic_unit}
       C -3.32190e-01 -1.21806e-02  1.56375e-01
       O  8.47226e-01  1.90432e-01 -2.32062e-01
       H -1.30618e-01  7.59574e-01 -7.46154e-01
       H -5.33972e-01 -9.72160e-01  7.47764e-01
       L  7.92319e+01  1.25536e+00  9.14601e-01
       L  2.43277e-01  1.36893e+01 -1.88306e+00
6
# CELL(abcABC):  459.05226   459.05226   459.05226    90.00000    90.00000    90.00000  Step:          39  Bead:       0 x_centroid{angstrom}  cell{atomic_unit}
       C -3.28806e-01 -8.28281e-03  1.56045e-01
       O  8.44625e-01  1.86724e-01 -2.31738e-01
       H -1.38043e-01  7.65836e-01 -7.41581e-01
       H -5.26036e-01 -9.66166e-01  7.42054e-01
       L  7.99417e+01  1.34154e+00  8.92760e-01
       L  3.64884e-01  1.38829e+01 -2.01124e+00
6
# CELL(abcABC):  459.05226   459.05226   459.05226    90.00000    90.00000    90.00000  Step:          40  Bead:       0 x_centroid{angstrom}  cell{atomic_unit}
       C -3.25109e-01 -4.12401e-03  1.55427e-01
       O  8.41825e-01  1.82667e-01 -2.31378e-01
       H -1.46598e-01  7.72276e-01 -7.34779e-01
       H -5.17521e-01 -9.57933e-01  7.37000e-01
       L  8.06242e+01  1.44746e+00  8.48006e-01
       L  4.69338e-01  1.41019e+01 -2.13208e+00
6
# CELL(abcABC):  459.05226   459.05226   459.05226    90.00000    90.00000    90.00000  Step:          41  Bead:       0 x_centroid{angstrom}  cell{atomic_unit}
       C -3.21134e-01  1.39299e-04  1.54758e-01
       O  8.38887e-01  1.78413e-01 -2.30911e-01
       H -1.56493e-01  7.79623e-01 -7.27244e-01
       H -5.08804e-01 -9.48756e-01  7.30093e-01
       L  8.13099e+01  1.56599e+00  8.44241e-01
       L  6.03880e-01  1.43445e+01 -2.24284e+00
6
# CELL(abcABC):  459.05226   459.05226   459.05226    90.00000    90.00000    90.00000  Step:          42  Bead:       0 x_centroid{angstrom}  cell{atomic_unit}
       C -3.17171e-01  4.44367e-03  1.54052e-01
       O  8.36082e-01  1.73958e-01 -2.30505e-01
       H -1.68259e-01  7.87967e-01 -7.18140e-01
       H -5.00188e-01 -9.37859e-01  7.23014e-01
       L  8.20129e+01  1.69018e+00  8.30204e-01
       L  7.19015e-01  1.45596e+01 -2.36116e+00
6
# CELL(abcABC):  459.05226   459.05226   459.05226    90.00000    90.00000    90.00000  Step:          43  Bead:       0 x_centroid{angstrom}  cell{atomic_unit}
       C -3.13099e-01  8.88906e-03  1.53356e-01
       O  8.33325e-01  1.69370e-01 -2.30133e-01
       H -1.82002e-01  7.96397e-01 -7.07810e-01
       H -4.91677e-01 -9.26630e-01  7.15175e-01
       L  8.28283e+01  1.79579e+00  7.74018e-01
       L  8.07972e-01  1.47998e+01 -2.46288e+00
6
# CELL(abcABC):  459.05226   459.05226   459.05226    90.00000    90.00000    90.00000  Step:          44  Bead:       0 x_centroid{angstrom}  cell{atomic_unit}
       C -3.08778e-01  1.34878e-02  1.52138e-01
       O  8.30342e-01  1.64747e-01 -2.29478e-01
       H -1.95071e-01  8.04150e-01 -6.96842e-01
       H -4.83290e-01 -9.16018e-01  7.08378e-01
       L  8.37091e+01  1.95695e+00  7.12965e-01
       L  8.90121e-01  1.50414e+01 -2.52771e+00
6
# CELL(abcABC):  459.05226   459.05226   459.05226    90.00000    90.00000    90.00000  Step:          45  Bead:       0 x_centroid{angstrom}  cell{atomic_unit}
       C -3.04132e-01  1.81648e-02  1.50792e-01
       O  8.27086e-01  1.60278e-01 -2.28782e-01
       H -2.07870e-01  8.10440e-01 -6.86435e-01
       H -4.74679e-01 -9.07238e-01  7.03059e-01
       L  8.46320e+01  2.03358e+00  5.94455e-01
       L  8.99288e-01  1.52227e+01 -2.58364e+00
6
# CELL(abcABC):  459.05226   459.05226   459.05226    90.00000    90.00000    90.00000  Step:          46  Bead:       0 x_centroid{angstrom}  cell{atomic_unit}
       C -2.99130e-01  2.27013e-02  1.49213e-01
       O  8.23529e-01  1.56091e-01 -2.28092e-01
       H -2.20773e-01  8.15528e-01 -6.75175e-01
       H -4.65439e-01 -9.00053e-01  6.99757e-01
       L  8.56682e+01  2.09246e+00  4.61223e-01
       L  8.33373e-01  1.54024e+01 -2.61583e+00
6
# CELL(abcABC):  459.05226   459.05226   459.05226    90.00000    90.00000    90.00000  Step:          47  Bead:       0 x_centroid{angstrom}  cell{atomic_unit}
       C -2.93989e-01  2.73489e-02  1.47405e-01
       O  8.19941e-01  1.52074e-01 -2.27378e-01
       H -2.34809e-01  8.20550e-01 -6.61944e-01
       H -4.56306e-01 -8.96778e-01  6.96845e-01
       L  8.68442e+01  2.14382e+00  2.62397e-01
       L  7.55958e-01  1.55090e+01 -2.59723e+00
6
# CELL(abcABC):  459.05226   459.05226   459.05226    90.00000    90.00000    90.00000  Step:          48  Bead:       0 x_centroid{angstrom}  cell{atomic_unit}
       C -2.88555e-01  3.18960e-02  1.45617e-01
       O  8.16308e-01  1.48197e-01 -2.26720e-01
       H -2.51278e-01  8.25982e-01 -6.49616e-01
       H -4.47591e-01 -8.94847e-01  6.95419e-01
       L  8.81130e+01  2.10209e+00  6.48768e-02
       L  7.11779e-01  1.55297e+01 -2.49339e+00
6
# CELL(abcABC):  459.05226   459.05226   459.05226    90.00000    90.00000    90.00000  Step:          49  Bead:       0 x_centroid{angstrom}  cell{atomic_unit}
       C -2.82654e-01  3.65685e-02  1.43605e-01
       O  8.12691e-01  1.44327e-01 -2.26057e-01
       H -2.70899e-01  8.32190e-01 -6.35792e-01
       H -4.41584e-01 -8.95257e-01  6.95115e-01
       L  8.94823e+01  2.06234e+00 -1.60622e-01
       L  6.58327e-01  1.55016e+01 -2.38862e+00
6
# CELL(abcABC):  459.05226   459.05226   459.05226    90.00000    90.00000    90.00000  Step:          50  Bead:       0 x_centroid{angstrom}  cell{atomic_unit}
       C -2.76917e-01  4.14179e-02  1.41685e-01
       O  8.09654e-01  1.40459e-01 -2.25540e-01
       H -2.94586e-01  8.39521e-01 -6.22100e-01
       H -4.38835e-01 -8.98990e-01  6.96136e-01
       L  9.09602e+01  2.05766e+00 -3.73503e-01
       L  6.19569e-01  1.55141e+01 -2.25374e+00
6
# CELL(abcABC):  459.05226   459.05226   459.05226    90.00000    90.00000    90.00000  Step:          51  Bead:       0 x_centroid{angstrom}  cell{atomic_unit}
       C -2.70964e-01  4.60993e-02  1.39599e-01
       O  8.07125e-01  1.36686e-01 -2.24912e-01
       H -3.26438e-01  8.48826e-01 -6.09016e-01
       H -4.38640e-01 -9.04162e-01  6.98032e-01
       L  9.25942e+01  2.00968e+00 -6.37381e-01
       L  5.70568e-01  1.55114e+01 -2.16187e+00
6
# CELL(abcABC):  459.05226   459.05226   459.05226    90.00000    90.00000    90.00000  Step:          52  Bead:       0 x_centroid{angstrom}  cell{atomic_unit}
       C -2.64988e-01  5.06075e-02  1.37956e-01
       O  8.05323e-01  1.32869e-01 -2.24647e-01
       H -3.65909e-01  8.60619e-01 -5.96620e-01
       H -4.42643e-01 -9.09032e-01  7.01062e-01
       L  9.43081e+01  1.98222e+00 -8.77591e-01
       L  4.66060e-01  1.54496e+01 -2.02369e+00
6
# CELL(abcABC):  459.05226   459.05226   459.05226    90.00000    90.00000    90.00000  Step:          53  Bead:       0 x_centroid{angstrom}  cell{atomic_unit}
       C -2.58463e-01  5.45649e-02  1.36583e-01
       O  8.04002e-01  1.29402e-01 -2.24402e-01
       H -4.15879e-01  8.74129e-01 -5.87842e-01
       H -4.50433e-01 -9.14604e-01  7.04803e-01
       L  9.61687e+01  1.96769e+00 -1.11933e+00
       L  3.66750e-01  1.53601e+01 -1.87578e+00
6
# CELL(abcABC):  459.05226   459.05226   459.05226    90.00000    90.00000    90.00000  Step:          54  Bead:       0 x_centroid{angstrom}  cell{atomic_unit}
       C -2.51889e-01  5.80545e-02  1.35245e-01
       O  8.03373e-01  1.26088e-01 -2.24110e-01
       H -4.74244e-01  8.88723e-01 -5.80609e-01
       H -4.61455e-01 -9.18086e-01  7.08935e-01
       L  9.81714e+01  1.95918e+00 -1.35614e+00
       L  2.68100e-01  1.51913e+01 -1.73198e+00
6
# CELL(abcABC):  459.05226   459.05226   459.05226    90.00000    90.00000    90.00000  Step:          55  Bead:       0 x_centroid{angstrom}  cell{atomic_unit}
       C -2.45343e-01  6.10542e-02  1.33952e-01
       O  8.03630e-01  1.22887e-01 -2.23842e-01
       H -5.43126e-01  9.05419e-01 -5.74321e-01
       H -4.75730e-01 -9.19596e-01  7.13784e-01
       L  1.00289e+02  1.91802e+00 -1.53747e+00
       L  1.38091e-01  1.50275e+01 -1.51978e+00
6
# CELL(abcABC):  459.05226   459.05226   459.05226    90.00000    90.00000    90.00000  Step:          56  Bead:       0 x_centroid{angstrom}  cell{atomic_unit}
       C -2.38427e-01  6.36302e-02  1.32719e-01
       O  8.04343e-01  1.19684e-01 -2.23672e-01
       H -6.19974e-01  9.24012e-01 -5.66747e-01
       H -4.93726e-01 -9.17946e-01  7.18164e-01
       L  1.02498e+02  1.92859e+00 -1.72957e+00
       L -5.67754e-03  1.48222e+01 -1.26260e+00
6
# CELL(abcABC):  459.05226   459.05226   459.05226    90.00000    90.00000    90.00000  Step:          57  Bead:       0 x_centroid{angstrom}  cell{atomic_unit}
       C -2.31703e-01  6.57984e-02  1.31509e-01
       O  8.05931e-01  1.16593e-01 -2.23673e-01
       H -7.04680e-01  9.40940e-01 -5.55637e-01
       H -5.15537e-01 -9.11524e-01  7.21455e-01
       L  1.04806e+02  1.93242e+00 -1.90260e+00
       L -1.59346e-01  1.45922e+01 -1.02857e+00
6
# CELL(abcABC):  459.05226   459.05226   459.05226    90.00000    90.00000    90.00000  Step:          58  Bead:       0 x_centroid{angstrom}  cell{atomic_unit}
       C -2.25929e-01  6.77236e-02  1.30052e-01
       O  8.08780e-01  1.13568e-01 -2.23711e-01
       H -7.95657e-01  9.54723e-01 -5.39938e-01
       H -5.39811e-01 -9.00038e-01  7.23701e-01
       L  1.07216e+02  1.87987e+00 -2.02888e+00
       L -3.18831e-01  1.42965e+01 -8.61896e-01
6
# CELL(abcABC):  459.05226   459.05226   459.05226    90.00000    90.00000    90.00000  Step:          59  Bead:       0 x_centroid{angstrom}  cell{atomic_unit}
       C -2.21954e-01  6.97194e-02  1.28758e-01
       O  8.13283e-01  1.10560e-01 -2.24226e-01
       H -8.89040e-01  9.61801e-01 -5.18693e-01
       H -5.66477e-01 -8.82987e-01  7.26003e-01
       L  1.09596e+02  1.83954e+00 -2.13897e+00
       L -4.64411e-01  1.40338e+01 -6.62875e-01
6
# CELL(abcABC):  459.05226   459.05226   459.05226    90.00000    90.00000    90.00000  Step:          60  Bead:       0 x_centroid{angstrom}  cell{atomic_unit}
       C -2.21103e-01  7.21470e-02  1.27564e-01
       O  8.20052e-01  1.07518e-01 -2.25292e-01
       H -9.81446e-01  9.59683e-01 -4.88656e-01
       H -5.92861e-01 -8.61357e-01  7.27022e-01
       L  1.11957e+02  1.80034e+00 -2.19310e+00
       L -6.24773e-01  1.38019e+01 -4.46759e-01
6
# CELL(abcABC):  459.05226   459.05226   459.05226    90.00000    90.00000    90.00000  Step:          61  Bead:       0 x_centroid{angstrom}  cell{atomic_unit}
       C -2.23626e-01  7.53534e-02  1.26271e-01
       O  8.28986e-01  1.04321e-01 -2.26896e-01
       H -1.06774e+00  9.45640e-01 -4.46927e-01
       H -6.19470e-01 -8.34672e-01  7.26097e-01
       L  1.14258e+02  1.75219e+00 -2.25988e+00
       L -8.25518e-01  1.36587e+01 -2.42733e-01
6
# CELL(abcABC):  459.05226   459.05226   459.05226    90.00000    90.00000    90.00000  Step:          62  Bead:       0 x_centroid{angstrom}  cell{atomic_unit}
       C -2.29143e-01  7.95050e-02  1.24688e-01
       O  8.39585e-01  1.00989e-01 -2.28974e-01
       H -1.14447e+00  9.21354e-01 -3.96094e-01
       H -6.46383e-01 -8.06920e-01  7.27014e-01
       L  1.16494e+02  1.72571e+00 -2.29776e+00
       L -9.36584e-01  1.36091e+01 -3.01174e-02
6
# CELL(abcABC):  459.05226   459.05226   459.05226    90.00000    90.00000    90.00000  Step:          63  Bead:       0 x_centroid{angstrom}  cell{atomic_unit}
       C -2.37236e-01  8.42898e-02  1.22516e-01
       O  8.51510e-01  9.74534e-02 -2.31133e-01
       H -1.21155e+00  8.89394e-01 -3.37838e-01
       H -6.73314e-01 -7.75863e-01  7.28831e-01
       L  1.18740e+02  1.69292e+00 -2.37882e+00
       L -1.06932e+00  1.36435e+01  1.88543e-01
6
# CELL(abcABC):  459.05226   459.05226   459.05226    90.00000    90.00000    90.00000  Step:          64  Bead:       0 x_centroid{angstrom}  cell{atomic_unit}
       C -2.46232e-01  8.93776e-02  1.20168e-01
       O  8.63394e-01  9.39524e-02 -2.33417e-01
       H -1.26877e+00  8.52092e-01 -2.76128e-01
       H -6.98683e-01 -7.43639e-01  7.31247e-01
       L  1.21029e+02  1.64708e+00 -2.43646e+00
       L -1.24218e+00  1.37317e+01  4.37456e-01
6
# CELL(abcABC):  459.05226   459.05226   459.05226    90.00000    90.00000    90.00000  Step:          65  Bead:       0 x_centroid{angstrom}  cell{atomic_unit}
       C -2.54336e-01  9.45637e-02  1.17333e-01
       O  8.74080e-01  9.04767e-02 -2.35506e-01
       H -1.31793e+00  8.12623e-01 -2.12391e-01
       H -7.23792e-01 -7.10850e-01  7.34345e-01
       L  1.23375e+02  1.62604e+00 -2.50924e+00
       L -1.38168e+00  1.38538e+01  7.18282e-01
6
# CELL(abcABC):  459.05226   459.05226   459.05226    90.00000    90.00000    90.00000  Step:          66  Bead:       0 x_centroid{angstrom}  cell{atomic_unit}
       C -2.60286e-01  9.92493e-02  1.13973e-01