6
# CELL(abcABC):  459.05226   459.05226   459.05226    90.00000    90.00000    90.00000  Step:           0  Bead:       0 x_centroid{angstrom}  cell{atomic_unit}
       C -3.39887e-01 -1.13437e-01  8.06659e-02
       O  8.43483e-01  2.62672e-01 -1.81512e-01
       H -7.35799e-02  8.16467e-01 -6.61432e-01
       H -4.30016e-01 -9.65701e-01  7.62278e-01
       L  6.13458e+01  0.00000e+00  0.00000e+00
       L  0.00000e+00  8.59064e+00  0.00000e+00
6
# CELL(abcABC):  459.05226   459.05226   459.05226    90.00000    90.00000    90.00000  Step:           1  Bead:       0 x_centroid{angstrom}  cell{atomic_unit}
       C -3.38535e-01 -1.14338e-01  7.84543e-02
       O  8.42411e-01  2.62706e-01 -1.80478e-01
       H -7.79436e-02  8.22375e-01 -6.60824e-01
       H -4.24419e-01 -9.61323e-01  7.71923e-01
       L  6.08245e+01  1.88532e-01 -6.11088e-01
       L -8.16699e-02  8.22285e+00  3.88689e-02
6
# CELL(abcABC):  459.05226   459.05226   459.05226    90.00000    90.00000    90.00000  Step:           2  Bead:       0 x_centroid{angstrom}  cell{atomic_unit}
       C -3.37105e-01 -1.15295e-01  7.64467e-02
       O  8.41162e-01  2.62816e-01 -1.79651e-01
       H -8.11222e-02  8.26923e-01 -6.58518e-01
       H -4.18135e-01 -9.56080e-01  7.80693e-01
       L  6.03481e+01  3.89270e-01 -1.19198e+00
       L -1.68667e-01  7.78633e+00  8.17923e-02
6
# CELL(abcABC):  459.05226   459.05226   459.05226    90.00000    90.00000    90.00000  Step:           3  Bead:       0 x_centroid{angstrom}  cell{atomic_unit}
       C -3.35618e-01 -1.16217e-01  7.45850e-02
       O  8.39836e-01  2.62971e-01 -1.78979e-01
       H -8.40043e-02  8.29338e-01 -6.56342e-01
       H -4.11663e-01 -9.49850e-01  7.90302e-01
       L  5.99427e+01  5.87546e-01 -1.71932e+00
       L -2.73180e-01  7.35916e+00  1.30259e-01
6
# CELL(abcABC):  459.05226   459.05226   459.05226    90.00000    90.00000    90.00000  Step:           4  Bead:       0 x_centroid{angstrom}  cell{atomic_unit}
       C -3.34307e-01 -1.17060e-01  7.27084e-02
       O  8.38687e-01  2.63222e-01 -1.78359e-01
       H -8.75924e-02  8.29205e-01 -6.51487e-01
       H -4.05178e-01 -9.43476e-01  7.98238e-01
       L  5.95489e+01  7.38651e-01 -2.30223e+00
       L -3.88681e-01  6.88587e+00  2.03562e-01
6
# CELL(abcABC):  459.05226   459.05226   459.05226    90.00000    90.00000    90.00000  Step:           5  Bead:       0 x_centroid{angstrom}  cell{atomic_unit}
       C -3.33032e-01 -1.18053e-01  7.08332e-02
       O  8.37553e-01  2.63723e-01 -1.77678e-01
       H -9.04301e-02  8.26126e-01 -6.45925e-01
       H -3.99269e-01 -9.36349e-01  8.04496e-01
       L  5.91898e+01  8.92748e-01 -2.87388e+00
       L -5.01653e-01  6.40467e+00  2.64560e-01
6
# CELL(abcABC):  459.05226   459.05226   459.05226    90.00000    90.00000    90.00000  Step:           6  Bead:       0 x_centroid{angstrom}  cell{atomic_unit}
       C -3.31955e-01 -1.19165e-01  6.89531e-02
       O  8.36595e-01  2.64468e-01 -1.77075e-01
       H -9.26084e-02  8.21194e-01 -6.38722e-01
       H -3.94474e-01 -9.29810e-01  8.10398e-01
       L  5.88586e+01  1.03893e+00 -3.41993e+00
       L -6.14353e-01  5.93816e+00  3.03786e-01
6
# CELL(abcABC):  459.05226   459.05226   459.05226    90.00000    90.00000    90.00000  Step:           7  Bead:       0 x_centroid{angstrom}  cell{atomic_unit}
       C -3.30860e-01 -1.20600e-01  6.72994e-02
       O  8.35528e-01  2.65393e-01 -1.76490e-01
       H -9.42247e-02  8.17091e-01 -6.32473e-01
       H -3.88789e-01 -9.23155e-01  8.14813e-01
       L  5.86193e+01  1.22277e+00 -3.89646e+00
       L -6.97042e-01  5.48505e+00  3.35415e-01
6
# CELL(abcABC):  459.05226   459.05226   459.05226    90.00000    90.00000    90.00000  Step:           8  Bead:       0 x_centroid{angstrom}  cell{atomic_unit}
       C -3.29986e-01 -1.21787e-01  6.56782e-02
       O  8.34663e-01  2.66285e-01 -1.75922e-01
       H -9.56558e-02  8.12588e-01 -6.25613e-01
       H -3.83874e-01 -9.18497e-01  8.18486e-01
       L  5.83932e+01  1.37970e+00 -4.34328e+00
       L -7.79075e-01  5.04795e+00  3.51832e-01
6
# CELL(abcABC):  459.05226   459.05226   459.05226    90.00000    90.00000    90.00000  Step:           9  Bead:       0 x_centroid{angstrom}  cell{atomic_unit}
       C -3.29095e-01 -1.23102e-01  6.40193e-02
       O  8.33828e-01  2.67235e-01 -1.75296e-01
       H -9.62254e-02  8.09618e-01 -6.19514e-01
       H -3.80520e-01 -9.14785e-01  8.22427e-01
       L  5.81970e+01  1.50046e+00 -4.71236e+00
       L -8.59518e-01  4.62822e+00  3.36315e-01
6
# CELL(abcABC):  459.05226   459.05226   459.05226    90.00000    90.00000    90.00000  Step:          10  Bead:       0 x_centroid{angstrom}  cell{atomic_unit}
       C -3.28362e-01 -1.24727e-01  6.24323e-02
       O  8.33179e-01  2.68254e-01 -1.74729e-01
       H -9.67856e-02  8.07994e-01 -6.14586e-01
       H -3.78232e-01 -9.09835e-01  8.27621e-01
       L  5.80245e+01  1.62808e+00 -5.10663e+00
       L -9.95294e-01  4.25956e+00  3.32900e-01
6
# CELL(abcABC):  459.05226   459.05226   459.05226    90.00000    90.00000    90.00000  Step:          11  Bead:       0 x_centroid{angstrom}  cell{atomic_unit}
       C -3.27692e-01 -1.26473e-01  6.09716e-02
       O  8.32564e-01  2.69329e-01 -1.74058e-01
       H -9.57578e-02  8.07491e-01 -6.11859e-01
       H -3.77342e-01 -9.05446e-01  8.31885e-01
       L  5.78887e+01  1.71752e+00 -5.49193e+00
       L -1.11578e+00  3.87795e+00  2.97410e-01
6
# CELL(abcABC):  459.05226   459.05226   459.05226    90.00000    90.00000    90.00000  Step:          12  Bead:       0 x_centroid{angstrom}  cell{atomic_unit}
       C -3.27416e-01 -1.28471e-01  5.94272e-02
       O  8.32379e-01  2.70445e-01 -1.73271e-01
       H -9.60293e-02  8.09128e-01 -6.09928e-01
       H -3.77268e-01 -9.00806e-01  8.36058e-01
       L  5.77263e+01  1.79478e+00 -5.87776e+00
       L -1.23671e+00  3.50399e+00  3.23272e-01
6
# CELL(abcABC):  459.05226   459.05226   459.05226    90.00000    90.00000    90.00000  Step:          13  Bead:       0 x_centroid{angstrom}  cell{atomic_unit}
       C -3.27483e-01 -1.30464e-01  5.80564e-02
       O  8.32476e-01  2.71541e-01 -1.72517e-01
       H -9.66644e-02  8.12010e-01 -6.09811e-01
       H -3.77248e-01 -8.97170e-01  8.40489e-01
       L  5.76247e+01  1.84159e+00 -6.22573e+00
       L -1.35969e+00  3.13160e+00  3.32404e-01
6
# CELL(abcABC):  459.05226   459.05226   459.05226    90.00000    90.00000    90.00000  Step:          14  Bead:       0 x_centroid{angstrom}  cell{atomic_unit}
       C -3.27604e-01 -1.32613e-01  5.68058e-02
       O  8.32791e-01  2.72753e-01 -1.71716e-01
       H -9.92149e-02  8.15647e-01 -6.11445e-01
       H -3.78155e-01 -8.94222e-01  8.44506e-01
       L  5.75766e+01  1.86337e+00 -6.53398e+00
       L -1.49773e+00  2.71058e+00  2.94019e-01
6
# CELL(abcABC):  459.05226   459.05226   459.05226    90.00000    90.00000    90.00000  Step:          15  Bead:       0 x_centroid{angstrom}  cell{atomic_unit}
       C -3.27772e-01 -1.34808e-01  5.58345e-02
       O  8.33182e-01  2.73982e-01 -1.71105e-01
       H -1.02030e-01  8.19931e-01 -6.13779e-01
       H -3.79478e-01 -8.91587e-01  8.48863e-01
       L  5.75570e+01  1.83909e+00 -6.75687e+00
       L -1.60351e+00  2.25580e+00  2.35063e-01
6
# CELL(abcABC):  459.05226   459.05226   459.05226    90.00000    90.00000    90.00000  Step:          16  Bead:       0 x_centroid{angstrom}  cell{atomic_unit}
       C -3.27865e-01 -1.36950e-01  5.50183e-02
       O  8.33584e-01  2.75272e-01 -1.70577e-01
       H -1.05166e-01  8.24092e-01 -6.16440e-01
       H -3.81523e-01 -8.90453e-01  8.52997e-01
       L  5.75158e+01  1.79984e+00 -6.93989e+00
       L -1.73331e+00  1.80835e+00  1.76809e-01
6
# CELL(abcABC):  459.05226   459.05226   459.05226    90.00000    90.00000    90.00000  Step:          17  Bead:       0 x_centroid{angstrom}  cell{atomic_unit}
       C -3.28095e-01 -1.39188e-01  5.42516e-02
       O  8.34003e-01  2.76679e-01 -1.70122e-01
       H -1.06433e-01  8.27815e-01 -6.18289e-01
       H -3.84093e-01 -8.89530e-01  8.56872e-01
       L  5.74756e+01  1.71830e+00 -7.07470e+00
       L -1.83253e+00  1.32932e+00  1.06095e-01
6
# CELL(abcABC):  459.05226   459.05226   459.05226    90.00000    90.00000    90.00000  Step:          18  Bead:       0 x_centroid{angstrom}  cell{atomic_unit}
       C -3.28127e-01 -1.41741e-01  5.34963e-02
       O  8.34068e-01  2.78419e-01 -1.69595e-01
       H -1.04217e-01  8.30012e-01 -6.21188e-01
       H -3.86897e-01 -8.88569e-01  8.60466e-01
       L  5.74480e+01  1.55727e+00 -7.07964e+00
       L -1.91731e+00  8.44597e-01  1.88526e-03
6
# CELL(abcABC):  459.05226   459.05226   459.05226    90.00000    90.00000    90.00000  Step:          19  Bead:       0 x_centroid{angstrom}  cell{atomic_unit}
       C -3.27882e-01 -1.44206e-01  5.30665e-02
       O  8.33827e-01  2.80195e-01 -1.69311e-01
       H -1.00082e-01  8.32072e-01 -6.23387e-01
       H -3.90114e-01 -8.89120e-01  8.63324e-01
       L  5.75060e+01  1.42451e+00 -7.01584e+00
       L -1.99628e+00  3.85840e-01 -1.31170e-01
6
# CELL(abcABC):  459.05226   459.05226   459.05226    90.00000    90.00000    90.00000  Step:          20  Bead:       0 x_centroid{angstrom}  cell{atomic_unit}
       C -3.27839e-01 -1.46685e-01  5.31346e-02
       O  8.33787e-01  2.82037e-01 -1.69350e-01
       H -9.52516e-02  8.32761e-01 -6.27212e-01
       H -3.94805e-01 -8.89185e-01  8.66976e-01
       L  5.75591e+01  1.29969e+00 -6.93757e+00
       L -2.07766e+00 -9.64694e-02 -2.42821e-01
6
# CELL(abcABC):  459.05226   459.05226   459.05226    90.00000    90.00000    90.00000  Step:          21  Bead:       0 x_centroid{angstrom}  cell{atomic_unit}
       C -3.27773e-01 -1.48853e-01  5.34465e-02
       O  8.34009e-01  2.83766e-01 -1.69437e-01
       H -9.37757e-02  8.31505e-01 -6.30112e-01
       H -4.00589e-01 -8.89195e-01  8.67497e-01
       L  5.76209e+01  1.19588e+00 -6.76894e+00
       L -2.15758e+00 -6.29177e-01 -3.28171e-01
6
# CELL(abcABC):  459.05226   459.05226   459.05226    90.00000    90.00000    90.00000  Step:          22  Bead:       0 x_centroid{angstrom}  cell{atomic_unit}
       C -3.27922e-01 -1.50893e-01  5.40026e-02
       O  8.34555e-01  2.85715e-01 -1.69533e-01
       H -9.43844e-02  8.26141e-01 -6.33595e-01
       H -4.06839e-01 -8.90154e-01  8.65819e-01
       L  5.76352e+01  1.10972e+00 -6.53289e+00
       L -2.22627e+00 -1.11040e+00 -4.68626e-01
6
# CELL(abcABC):  459.05226   459.05226   459.05226    90.00000    90.00000    90.00000  Step:          23  Bead:       0 x_centroid{angstrom}  cell{atomic_unit}
       C -3.27922e-01 -1.52786e-01  5.49894e-02
       O  8.34838e-01  2.87600e-01 -1.69776e-01
       H -9.28806e-02  8.21779e-01 -6.38232e-01
       H -4.12827e-01 -8.92826e-01  8.62459e-01
       L  5.76490e+01  1.00514e+00 -6.20438e+00
       L -2.23302e+00 -1.59974e+00 -6.29696e-01
6
# CELL(abcABC):  459.05226   459.05226   459.05226    90.00000    90.00000    90.00000  Step:          24  Bead:       0 x_centroid{angstrom}  cell{atomic_unit}
       C -3.27917e-01 -1.55193e-01  5.59855e-02
       O  8.34987e-01  2.89764e-01 -1.70018e-01
       H -8.98563e-02  8.18711e-01 -6.43375e-01
       H -4.18344e-01 -8.95146e-01  8.59472e-01
       L  5.77055e+01  8.95432e-01 -5.76442e+00
       L -2.17704e+00 -2.01666e+00 -8.60311e-01
6
# CELL(abcABC):  459.05226   459.05226   459.05226    90.00000    90.00000    90.00000  Step:          25  Bead:       0 x_centroid{angstrom}  cell{atomic_unit}
       C -3.27967e-01 -1.57780e-01  5.71945e-02
       O  8.35043e-01  2.92045e-01 -1.70466e-01
       H -8.60990e-02  8.16569e-01 -6.49249e-01
       H -4.22499e-01 -8.98086e-01  8.57883e-01
       L  5.77745e+01  7.73478e-01 -5.24536e+00
       L -2.06209e+00 -2.43049e+00 -1.08075e+00
6
# CELL(abcABC):  459.05226   459.05226   459.05226    90.00000    90.00000    90.00000  Step:          26  Bead:       0 x_centroid{angstrom}  cell{atomic_unit}
       C -3.28075e-01 -1.60530e-01  5.84757e-02
       O  8.35054e-01  2.94281e-01 -1.70954e-01
       H -8.13127e-02  8.16756e-01 -6.56540e-01
       H -4.26320e-01 -9.00720e-01  8.57501e-01
       L  5.78759e+01  6.62663e-01 -4.73666e+00
       L -1.89429e+00 -2.83702e+00 -1.31010e+00
6
# CELL(abcABC):  459.05226   459.05226   459.05226    90.00000    90.00000    90.00000  Step:          27  Bead:       0 x_centroid{angstrom}  cell{atomic_unit}
       C -3.28249e-01 -1.63254e-01  5.99159e-02
       O  8.34987e-01  2.96405e-01 -1.71477e-01
       H -7.58164e-02  8.19411e-01 -6.65430e-01
       H -4.28821e-01 -9.04362e-01  8.57343e-01
       L  5.79832e+01  5.47305e-01 -4.21280e+00
       L -1.73197e+00 -3.19920e+00 -1.49775e+00
6
# CELL(abcABC):  459.05226   459.05226   459.05226    90.00000    90.00000    90.00000  Step:          28  Bead:       0 x_centroid{angstrom}  cell{atomic_unit}
       C -3.28627e-01 -1.65836e-01  6.15505e-02
       O  8.35088e-01  2.98510e-01 -1.72196e-01
       H -7.18330e-02  8.22441e-01 -6.73538e-01
       H -4.30082e-01 -9.09772e-01  8.57180e-01
       L  5.80746e+01  4.16752e-01 -3.64096e+00
       L -1.49818e+00 -3.56853e+00 -1.69247e+00
6
# CELL(abcABC):  459.05226   459.05226   459.05226    90.00000    90.00000    90.00000  Step:          29  Bead:       0 x_centroid{angstrom}  cell{atomic_unit}
       C -3.29524e-01 -1.68561e-01  6.30222e-02
       O  8.35773e-01  3.00787e-01 -1.72707e-01
       H -7.07342e-02  8.23849e-01 -6.81706e-01
       H -4.31507e-01 -9.14543e-01  8.55685e-01
       L  5.81314e+01  2.29452e-01 -3.02337e+00
       L -1.28276e+00 -3.94854e+00 -1.86537e+00
6
# CELL(abcABC):  459.05226   459.05226   459.05226    90.00000    90.00000    90.00000  Step:          30  Bead:       0 x_centroid{angstrom}  cell{atomic_unit}
       C -3.30612e-01 -1.71016e-01  6.43458e-02
       O  8.36724e-01  3.02950e-01 -1.73234e-01
       H -7.21270e-02  8.24803e-01 -6.89685e-01
       H -4.32374e-01 -9.20257e-01  8.55984e-01
       L  5.81303e+01  5.75711e-02 -2.39402e+00
       L -1.05056e+00 -4.34811e+00 -1.98410e+00
6
# CELL(abcABC):  459.05226   459.05226   459.05226    90.00000    90.00000    90.00000  Step:          31  Bead:       0 x_centroid{angstrom}  cell{atomic_unit}
       C -3.31958e-01 -1.73371e-01  6.53148e-02
       O  8.37964e-01  3.05095e-01 -1.73655e-01
       H -7.49214e-02  8.25269e-01 -6.96258e-01
       H -4.33410e-01 -9.26444e-01  8.57373e-01
       L  5.81952e+01 -9.48482e-02 -1.72848e+00
       L -7.61913e-01 -4.71728e+00 -2.07200e+00
6
# CELL(abcABC):  459.05226   459.05226   459.05226    90.00000    90.00000    90.00000  Step:          32  Bead:       0 x_centroid{angstrom}  cell{atomic_unit}
       C -3.33216e-01 -1.75441e-01  6.61200e-02
       O  8.39133e-01  3.07089e-01 -1.74058e-01
       H -7.82277e-02  8.24978e-01 -7.01486e-01
       H -4.33881e-01 -9.32888e-01  8.59124e-01
       L  5.82631e+01 -1.85564e-01 -1.08560e+00
       L -4.56211e-01 -5.06918e+00 -2.20822e+00
6
# CELL(abcABC):  459.05226   459.05226   459.05226    90.00000    90.00000    90.00000  Step:          33  Bead:       0 x_centroid{angstrom}  cell{atomic_unit}
       C -3.34619e-01 -1.77532e-01  6.70643e-02
       O  8.40192e-01  3.09104e-01 -1.74630e-01
       H -7.91899e-02  8.24734e-01 -7.06661e-01
       H -4.33181e-01 -9.39515e-01  8.61866e-01
       L  5.83481e+01 -2.58699e-01 -4.79184e-01
       L -2.23271e-01 -5.36423e+00 -2.33361e+00
6
# CELL(abcABC):  459.05226   459.05226   459.05226    90.00000    90.00000    90.00000  Step:          34  Bead:       0 x_centroid{angstrom}  cell{atomic_unit}
       C -3.35798e-01 -1.79605e-01  6.78742e-02
       O  8.40725e-01  3.10938e-01 -1.75266e-01
       H -7.63770e-02  8.25180e-01 -7.10080e-01
       H -4.30564e-01 -9.44168e-01  8.65479e-01
       L  5.84599e+01 -3.07353e-01  1.19699e-01
       L -4.41747e-02 -5.67894e+00 -2.46450e+00
6
# CELL(abcABC):  459.05226   459.05226   459.05226    90.00000    90.00000    90.00000  Step:          35  Bead:       0 x_centroid{angstrom}  cell{atomic_unit}
       C -3.37032e-01 -1.81500e-01  6.88202e-02
       O  8.41044e-01  3.12471e-01 -1.76155e-01
       H -7.14104e-02  8.27186e-01 -7.11595e-01
       H -4.25997e-01 -9.47740e-01  8.69597e-01
       L  5.85238e+01 -3.53019e-01  6.63677e-01
       L  8.88564e-02 -5.96641e+00 -2.58954e+00
6
# CELL(abcABC):  459.05226   459.05226   459.05226    90.00000    90.00000    90.00000  Step:          36  Bead:       0 x_centroid{angstrom}  cell{atomic_unit}
       C -3.38072e-01 -1.83161e-01  6.95785e-02
       O  8.41035e-01  3.13820e-01 -1.76967e-01
       H -6.40924e-02  8.27411e-01 -7.12272e-01
       H -4.20921e-01 -9.49416e-01  8.73894e-01
       L  5.86037e+01 -4.25289e-01  1.20432e+00
       L  2.54038e-01 -6.20135e+00 -2.69316e+00
6
# CELL(abcABC):  459.05226   459.05226   459.05226    90.00000    90.00000    90.00000  Step:          37  Bead:       0 x_centroid{angstrom}  cell{atomic_unit}
       C -3.39125e-01 -1.85018e-01  7.01161e-02
       O  8.41064e-01  3.15253e-01 -1.77636e-01
       H -5.74244e-02  8.27936e-01 -7.12767e-01
       H -4.15611e-01 -9.50387e-01  8.78383e-01
       L  5.86300e+01 -5.45069e-01  1.69633e+00
       L  4.48326e-01 -6.41508e+00 -2.79022e+00
6
# CELL(abcABC):  459.05226   459.05226   459.05226    90.00000    90.00000    90.00000  Step:          38  Bead:       0 x_centroid{angstrom}  cell{atomic_unit}
       C -3.40561e-01 -1.86482e-01  7.05799e-02
       O  8.41597e-01  3.16324e-01 -1.78286e-01
       H -5.38915e-02  8.27289e-01 -7.11799e-01
       H -4.10598e-01 -9.49139e-01  8.82033e-01
       L  5.86174e+01 -6.50576e-01  2.10602e+00
       L  6.37109e-01 -6.59656e+00 -2.87946e+00
6
# CELL(abcABC):  459.05226   459.05226   459.05226    90.00000    90.00000    90.00000  Step:          39  Bead:       0 x_centroid{angstrom}  cell{atomic_unit}
       C -3.42115e-01 -1.87898e-01  7.10331e-02
       O  8.42413e-01  3.17352e-01 -1.78953e-01
       H -5.43303e-02  8.24704e-01 -7.10081e-01
       H -4.04636e-01 -9.45897e-01  8.85326e-01
       L  5.85040e+01 -7.71904e-01  2.49114e+00
       L  8.50530e-01 -6.66781e+00 -2.94268e+00
6
# CELL(abcABC):  459.05226   459.05226   459.05226    90.00000    90.00000    90.00000  Step:          40  Bead:       0 x_centroid{angstrom}  cell{atomic_unit}
       C -3.43627e-01 -1.89469e-01  7.10889e-02
       O  8.43470e-01  3.18472e-01 -1.79304e-01
       H -5.81585e-02  8.21767e-01 -7.07918e-01
       H -3.99638e-01 -9.41946e-01  8.87912e-01
       L  5.83220e+01 -8.77655e-01  2.82733e+00
       L  1.14546e+00 -6.67871e+00 -2.98874e+00
6
# CELL(abcABC):  459.05226   459.05226   459.05226    90.00000    90.00000    90.00000  Step:          41  Bead:       0 x_centroid{angstrom}  cell{atomic_unit}
       C -3.44957e-01 -1.91187e-01  7.11715e-02
       O  8.44499e-01  3.19515e-01 -1.79722e-01
       H -6.33128e-02  8.20140e-01 -7.05426e-01
       H -3.94980e-01 -9.36316e-01  8.90918e-01
       L  5.80731e+01 -1.01712e+00  3.12085e+00
       L  1.41565e+00 -6.71909e+00 -2.99129e+00
6
# CELL(abcABC):  459.05226   459.05226   459.05226    90.00000    90.00000    90.00000  Step:          42  Bead:       0 x_centroid{angstrom}  cell{atomic_unit}
       C -3.46016e-01 -1.92657e-01  7.08357e-02
       O  8.45189e-01  3.20435e-01 -1.80003e-01
       H -6.66329e-02  8.18581e-01 -7.00206e-01
       H -3.89992e-01 -9.31776e-01  8.93988e-01
       L  5.77704e+01 -1.14455e+00  3.34832e+00
       L  1.70927e+00 -6.70804e+00 -2.90888e+00
6
# CELL(abcABC):  459.05226   459.05226   459.05226    90.00000    90.00000    90.00000  Step:          43  Bead:       0 x_centroid{angstrom}  cell{atomic_unit}
       C -3.46610e-01 -1.94148e-01  7.04009e-02
       O  8.45336e-01  3.21205e-01 -1.80310e-01
       H -6.73821e-02  8.19105e-01 -6.94061e-01
       H -3.84471e-01 -9.26704e-01  8.97784e-01
       L  5.74267e+01 -1.26350e+00  3.51008e+00
       L  2.01097e+00 -6.68655e+00 -2.84970e+00
6
# CELL(abcABC):  459.05226   459.05226   459.05226    90.00000    90.00000    90.00000  Step:          44  Bead:       0 x_centroid{angstrom}  cell{atomic_unit}
       C -3.46827e-01 -1.95568e-01  6.98450e-02
       O  8.44945e-01  3.21681e-01 -1.80585e-01
       H -6.50520e-02  8.22460e-01 -6.87815e-01
       H -3.77953e-01 -9.20670e-01  9.02397e-01
       L  5.70392e+01 -1.38574e+00  3.65024e+00
       L  2.28243e+00 -6.60275e+00 -2.76401e+00
6
# CELL(abcABC):  459.05226   459.05226   459.05226    90.00000    90.00000    90.00000  Step:          45  Bead:       0 x_centroid{angstrom}  cell{atomic_unit}
       C -3.46505e-01 -1.96957e-01  6.89805e-02
       O  8.43970e-01  3.21921e-01 -1.80733e-01
       H -6.09763e-02  8.27944e-01 -6.80349e-01
       H -3.70302e-01 -9.13400e-01  9.07497e-01
       L  5.66611e+01 -1.49342e+00  3.72562e+00
       L  2.50642e+00 -6.52924e+00 -2.67736e+00
6
# CELL(abcABC):  459.05226   459.05226   459.05226    90.00000    90.00000    90.00000  Step:          46  Bead:       0 x_centroid{angstrom}  cell{atomic_unit}
       C -3.46016e-01 -1.98389e-01  6.80005e-02
       O  8.42899e-01  3.22193e-01 -1.80811e-01
       H -5.77679e-02  8.32741e-01 -6.72131e-01
       H -3.62181e-01 -9.05429e-01  9.12112e-01
       L  5.61878e+01 -1.59255e+00  3.80323e+00
       L  2.71761e+00 -6.45596e+00 -2.60590e+00
6
# CELL(abcABC):  459.05226   459.05226   459.05226    90.00000    90.00000    90.00000  Step:          47  Bead:       0 x_centroid{angstrom}  cell{atomic_unit}
       C -3.45848e-01 -2.00120e-01  6.72714e-02
       O  8.42255e-01  3.22687e-01 -1.80936e-01
       H -5.62968e-02  8.36661e-01 -6.64516e-01
       H -3.55302e-01 -8.96543e-01  9.15076e-01
       L  5.57262e+01 -1.63797e+00  3.87579e+00
       L  2.91190e+00 -6.44405e+00 -2.50242e+00
6
# CELL(abcABC):  459.05226   459.05226   459.05226    90.00000    90.00000    90.00000  Step:          48  Bead:       0 x_centroid{angstrom}  cell{atomic_unit}
       C -3.46081e-01 -2.01738e-01  6.65339e-02
       O  8.42055e-01  3.23164e-01 -1.80998e-01
       H -5.65266e-02  8.39617e-01 -6.56400e-01
       H -3.48914e-01 -8.87795e-01  9.16687e-01
       L  5.52048e+01 -1.63078e+00  3.86484e+00
       L  3.05923e+00 -6.44286e+00 -2.41011e+00
6
# CELL(abcABC):  459.05226   459.05226   459.05226    90.00000    90.00000    90.00000  Step:          49  Bead:       0 x_centroid{angstrom}  cell{atomic_unit}
       C -3.46296e-01 -2.03422e-01  6.57686e-02
       O  8.41995e-01  3.23831e-01 -1.81082e-01
       H -5.75393e-02  8.41828e-01 -6.46569e-01
       H -3.44092e-01 -8.80481e-01  9.17295e-01
       L  5.45841e+01 -1.61913e+00  3.80346e+00
       L  3.13574e+00 -6.56427e+00 -2.32497e+00
6
# CELL(abcABC):  459.05226   459.05226   459.05226    90.00000    90.00000    90.00000  Step:          50  Bead:       0 x_centroid{angstrom}  cell{atomic_unit}
       C -3.46626e-01 -2.05162e-01  6.50524e-02
       O  8.42085e-01  3.24640e-01 -1.81226e-01
       H -5.96248e-02  8.42929e-01 -6.36802e-01
       H -3.39157e-01 -8.73639e-01  9.18379e-01
       L  5.38984e+01 -1.55944e+00  3.68578e+00
       L  3.17081e+00 -6.71832e+00 -2.27912e+00
6
# CELL(abcABC):  459.05226   459.05226   459.05226    90.00000    90.00000    90.00000  Step:          51  Bead:       0 x_centroid{angstrom}  cell{atomic_unit}
       C -3.46872e-01 -2.06845e-01  6.48844e-02
       O  8.42245e-01  3.25568e-01 -1.81674e-01
       H -6.14456e-02  8.43094e-01 -6.28195e-01
       H -3.36533e-01 -8.68449e-01  9.18952e-01
       L  5.31275e+01 -1.45664e+00  3.55058e+00
       L  3.21052e+00 -6.86118e+00 -2.24557e+00
6
# CELL(abcABC):  459.05226   459.05226   459.05226    90.00000    90.00000    90.00000  Step:          52  Bead:       0 x_centroid{angstrom}  cell{atomic_unit}
       C -3.47194e-01 -2.08541e-01  6.48595e-02
       O  8.42516e-01  3.26569e-01 -1.82188e-01
       H -6.32112e-02  8.43060e-01 -6.19870e-01
       H -3.34850e-01 -8.64057e-01  9.19195e-01
       L  5.23552e+01 -1.35168e+00  3.31046e+00
       L  3.29240e+00 -7.04161e+00 -2.20809e+00
6
# CELL(abcABC):  459.05226   459.05226   459.05226    90.00000    90.00000    90.00000  Step:          53  Bead:       0 x_centroid{angstrom}  cell{atomic_unit}
       C -3.47609e-01 -2.10197e-01  6.48521e-02
       O  8.42650e-01  3.27643e-01 -1.82732e-01
       H -6.14043e-02  8.42959e-01 -6.12484e-01
       H -3.33402e-01 -8.61214e-01  9.20627e-01
       L  5.15352e+01 -1.24463e+00  3.05786e+00
       L  3.29270e+00 -7.25444e+00 -2.14153e+00
6
# CELL(abcABC):  459.05226   459.05226   459.05226    90.00000    90.00000    90.00000  Step:          54  Bead:       0 x_centroid{angstrom}  cell{atomic_unit}
       C -3.48102e-01 -2.12026e-01  6.51640e-02
       O  8.42630e-01  3.28995e-01 -1.83658e-01
       H -5.65119e-02  8.42894e-01 -6.04535e-01
       H -3.31630e-01 -8.60780e-01  9.23735e-01
       L  5.06728e+01 -1.10523e+00  2.82084e+00
       L  3.28021e+00 -7.44353e+00 -2.04382e+00
6
# CELL(abcABC):  459.05226   459.05226   459.05226    90.00000    90.00000    90.00000  Step:          55  Bead:       0 x_centroid{angstrom}  cell{atomic_unit}
       C -3.48386e-01 -2.13651e-01  6.53088e-02
       O  8.42246e-01  3.30192e-01 -1.84544e-01
       H -4.84625e-02  8.44455e-01 -5.97106e-01
       H -3.29675e-01 -8.61976e-01  9.28773e-01
       L  4.97665e+01 -9.53112e-01  2.51934e+00
       L  3.22234e+00 -7.60109e+00 -1.97767e+00
6
# CELL(abcABC):  459.05226   459.05226   459.05226    90.00000    90.00000    90.00000  Step:          56  Bead:       0 x_centroid{angstrom}  cell{atomic_unit}
       C -3.48693e-01 -2.15109e-01  6.58393e-02
       O  8.41754e-01  3.31362e-01 -1.85765e-01
       H -3.86887e-02  8.45950e-01 -5.90546e-01
       H -3.27405e-01 -8.64626e-01  9.35386e-01
       L  4.87831e+01 -8.63779e-01  2.18906e+00
       L  3.15297e+00 -7.79128e+00 -1.85798e+00
6
# CELL(abcABC):  459.05226   459.05226   459.05226    90.00000    90.00000    90.00000  Step:          57  Bead:       0 x_centroid{angstrom}  cell{atomic_unit}
       C -3.49208e-01 -2.16712e-01  6.65980e-02
       O  8.41234e-01  3.32614e-01 -1.87047e-01
       H -2.67792e-02  8.48578e-01 -5.85174e-01
       H -3.24281e-01 -8.67963e-01  9.41432e-01
       L  4.77471e+01 -7.52384e-01  1.85283e+00
       L  3.03019e+00 -7.97919e+00 -1.72142e+00
6
# CELL(abcABC):  459.05226   459.05226   459.05226    90.00000    90.00000    90.00000  Step:          58  Bead:       0 x_centroid{angstrom}  cell{atomic_unit}
       C -3.49880e-01 -2.18421e-01  6.74143e-02
       O  8.40965e-01  3.33757e-01 -1.88065e-01
       H -1.59420e-02  8.54773e-01 -5.83457e-01
       H -3.22120e-01 -8.71924e-01  9.46286e-01
       L  4.66247e+01 -5.98227e-01  1.46590e+00
       L  2.80681e+00 -8.17484e+00 -1.59649e+00
6
# CELL(abcABC):  459.05226   459.05226   459.05226    90.00000    90.00000    90.00000  Step:          59  Bead:       0 x_centroid{angstrom}  cell{atomic_unit}
       C -3.51094e-01 -2.20543e-01  6.87776e-02
       O  8.41140e-01  3.35241e-01 -1.89172e-01
       H -4.81315e-03  8.59600e-01 -5.84513e-01
       H -3.20766e-01 -8.75029e-01  9.48798e-01
       L  4.54327e+01 -3.86264e-01  1.09527e+00
       L  2.52264e+00 -8.39434e+00 -1.45712e+00
6
# CELL(abcABC):  459.05226   459.05226   459.05226    90.00000    90.00000    90.00000  Step:          60  Bead:       0 x_centroid{angstrom}  cell{atomic_unit}
       C -3.52682e-01 -2.22826e-01  7.07080e-02
       O  8.41765e-01  3.36992e-01 -1.90410e-01
       H  5.54966e-03  8.63273e-01 -5.88235e-01
       H -3.21236e-01 -8.79217e-01  9.49311e-01
       L  4.41159e+01 -1.95773e-01  7.23458e-01
       L  2.22383e+00 -8.70264e+00 -1.34718e+00
6
# CELL(abcABC):  459.05226   459.05226   459.05226    90.00000    90.00000    90.00000  Step:          61  Bead:       0 x_centroid{angstrom}  cell{atomic_unit}
       C -3.54574e-01 -2.25507e-01  7.30530e-02
       O  8.42729e-01  3.38986e-01 -1.91717e-01
       H  1.54615e-02  8.67310e-01 -5.93442e-01
       H -3.22953e-01 -8.82870e-01  9.47440e-01
       L  4.26624e+01 -2.34520e-02  4.10779e-01
       L  1.90876e+00 -9.04261e+00 -1.24042e+00
6
# CELL(abcABC):  459.05226   459.05226   459.05226    90.00000    90.00000    90.00000  Step:          62  Bead:       0 x_centroid{angstrom}  cell{atomic_unit}
       C -3.56663e-01 -2.28646e-01  7.55975e-02
       O  8.43844e-01  3.41242e-01 -1.92924e-01
       H  2.65339e-02  8.72535e-01 -6.00748e-01
       H -3.25799e-01 -8.86410e-01  9.43684e-01
       L  4.11353e+01  1.96400e-01  8.58277e-02
       L  1.55375e+00 -9.40926e+00 -1.11878e+00
6
# CELL(abcABC):  459.05226   459.05226   459.05226    90.00000    90.00000    90.00000  Step:          63  Bead:       0 x_centroid{angstrom}  cell{atomic_unit}
       C -3.59315e-01 -2.32003e-01  7.82074e-02
       O  8.45235e-01  3.43588e-01 -1.94093e-01
       H  3.92308e-02  8.78674e-01 -6.09521e-01
       H -3.27914e-01 -8.89758e-01  9.39987e-01
       L  3.95632e+01  4.18964e-01 -2.23712e-01
       L  1.16694e+00 -9.71495e+00 -9.42719e-01
6
# CELL(abcABC):  459.05226   459.05226   459.05226    90.00000    90.00000    90.00000  Step:          64  Bead:       0 x_centroid{angstrom}  cell{atomic_unit}
       C -3.62356e-01 -2.35444e-01  8.07879e-02
       O  8.46644e-01  3.45938e-01 -1.95267e-01
       H  5.55942e-02  8.86805e-01 -6.18809e-01
       H -3.29280e-01 -8.94138e-01  9.37234e-01
       L  3.79130e+01  6.87923e-01 -5.38798e-01
       L  7.59560e-01 -1.00518e+01 -7.45624e-01
6
# CELL(abcABC):  459.05226   459.05226   459.05226    90.00000    90.00000    90.00000  Step:          65  Bead:       0 x_centroid{angstrom}  cell{atomic_unit}
       C -3.65665e-01 -2.38881e-01  8.33546e-02
       O  8.47825e-01  3.48198e-01 -1.96483e-01
       H  7.73841e-02  8.97230e-01 -6.29715e-01
       H -3.29254e-01 -8.99417e-01  9.36927e-01
       L  3.62078e+01  9.25071e-01 -8.76543e-01
       L  3.80187e-01 -1.04067e+01 -5.44580e-01
6
# CELL(abcABC):  459.05226   459.05226   459.05226    90.00000    90.00000    90.00000  Step:          66  Bead:       0 x_centroid{angstrom}  cell{atomic_unit}
       C -3.69195e-01 -2.42492e-01  8.61317e-02