6
# CELL(abcABC):  459.05226   459.05226   459.05226    90.00000    90.00000    90.00000  Step:           0  Bead:       0 x_centroid{angstrom}  cell{atomic_unit}
       C -3.39887e-01 -1.13437e-01  8.06659e-02
       O  8.43483e-01  2.62672e-01 -1.81512e-01
       H -7.35799e-02  8.16467e-01 -6.61432e-01
       H -4.30016e-01 -9.65701e-01  7.62278e-01
       L  6.13458e+01  0.00000e+00  0.00000e+00
       L  0.00000e+00  8.59064e+00  0.00000e+00
6
# CELL(abcABC):  459.05226   459.05226   459.05226    90.00000    90.00000    90.00000  Step:           1  Bead:       0 x_centroid{angstrom}  cell{atomic_unit}
       C -3.39626e-01 -1.13311e-01  8.07826e-02
       O  8.41808e-01  2.63407e-01 -1.81768e-01
       H -5.30146e-02  8.14101e-01 -6.55211e-01
       H -4.27345e-01 -9.76057e-01  7.58712e-01
       L  6.16408e+01 -5.10379e-01  1.75570e-01
       L  1.55814e-01  8.27161e+00 -1.41985e-01
6
# CELL(abcABC):  459.05226   459.05226   459.05226    90.00000    90.00000    90.00000  Step:           2  Bead:       0 x_centroid{angstrom}  cell{atomic_unit}
       C -3.39968e-01 -1.13421e-01  8.13064e-02
       O  8.41266e-01  2.64173e-01 -1.82243e-01
       H -4.12284e-02  8.12318e-01 -6.49145e-01
       H -4.26656e-01 -9.84670e-01  7.53945e-01
       L  6.18210e+01 -1.07815e+00  3.25389e-01
       L  3.38201e-01  8.00920e+00 -2.97310e-01
6
# CELL(abcABC):  459.05226   459.05226   459.05226    90.00000    90.00000    90.00000  Step:           3  Bead:       0 x_centroid{angstrom}  cell{atomic_unit}
       C -3.40858e-01 -1.13828e-01  8.19598e-02
       O  8.42050e-01  2.65013e-01 -1.82737e-01
       H -4.26346e-02  8.10508e-01 -6.42564e-01
       H -4.27241e-01 -9.90910e-01  7.47431e-01
       L  6.19112e+01 -1.64459e+00  4.77065e-01
       L  5.44144e-01  7.77362e+00 -4.67603e-01
6
# CELL(abcABC):  459.05226   459.05226   459.05226    90.00000    90.00000    90.00000  Step:           4  Bead:       0 x_centroid{angstrom}  cell{atomic_unit}
       C -3.42506e-01 -1.14671e-01  8.27814e-02
       O  8.44337e-01  2.65984e-01 -1.83188e-01
       H -5.64901e-02  8.09974e-01 -6.37907e-01
       H -4.30131e-01 -9.95322e-01  7.40146e-01
       L  6.18743e+01 -2.18686e+00  6.03845e-01
       L  7.33983e-01  7.53673e+00 -6.03015e-01
6
# CELL(abcABC):  459.05226   459.05226   459.05226    90.00000    90.00000    90.00000  Step:           5  Bead:       0 x_centroid{angstrom}  cell{atomic_unit}
       C -3.44494e-01 -1.15817e-01  8.32733e-02
       O  8.47221e-01  2.66822e-01 -1.83301e-01
       H -7.56657e-02  8.13241e-01 -6.34296e-01
       H -4.33114e-01 -9.97829e-01  7.32496e-01
       L  6.18185e+01 -2.69087e+00  6.83793e-01
       L  9.08741e-01  7.27984e+00 -7.39746e-01
6
# CELL(abcABC):  459.05226   459.05226   459.05226    90.00000    90.00000    90.00000  Step:           6  Bead:       0 x_centroid{angstrom}  cell{atomic_unit}
       C -3.46201e-01 -1.17226e-01  8.32930e-02
       O  8.49405e-01  2.67497e-01 -1.83081e-01
       H -8.93054e-02  8.22935e-01 -6.32421e-01
       H -4.33906e-01 -1.00105e+00  7.26925e-01
       L  6.17876e+01 -3.18728e+00  7.39076e-01
       L  1.12044e+00  7.04780e+00 -8.51665e-01
6
# CELL(abcABC):  459.05226   459.05226   459.05226    90.00000    90.00000    90.00000  Step:           7  Bead:       0 x_centroid{angstrom}  cell{atomic_unit}
       C -3.47048e-01 -1.18487e-01  8.32779e-02
       O  8.50170e-01  2.67870e-01 -1.82784e-01
       H -9.32626e-02  8.38125e-01 -6.33168e-01
       H -4.32077e-01 -1.00677e+00  7.23144e-01
       L  6.18159e+01 -3.66576e+00  8.31208e-01
       L  1.25168e+00  6.87068e+00 -9.50554e-01
6
# CELL(abcABC):  459.05226   459.05226   459.05226    90.00000    90.00000    90.00000  Step:           8  Bead:       0 x_centroid{angstrom}  cell{atomic_unit}
       C -3.47111e-01 -1.19436e-01  8.30330e-02
       O  8.49439e-01  2.67883e-01 -1.82467e-01
       H -8.44199e-02  8.56870e-01 -6.34483e-01
       H -4.28720e-01 -1.01407e+00  7.22316e-01
       L  6.19141e+01 -4.11403e+00  8.97183e-01
       L  1.41891e+00  6.69509e+00 -9.77844e-01
6
# CELL(abcABC):  459.05226   459.05226   459.05226    90.00000    90.00000    90.00000  Step:           9  Bead:       0 x_centroid{angstrom}  cell{atomic_unit}
       C -3.46679e-01 -1.20678e-01  8.27591e-02
       O  8.47767e-01  2.68064e-01 -1.82196e-01
       H -6.82780e-02  8.76229e-01 -6.35298e-01
       H -4.23652e-01 -1.02121e+00  7.22063e-01
       L  6.20262e+01 -4.52515e+00  9.29807e-01
       L  1.65612e+00  6.55141e+00 -9.49387e-01
6
# CELL(abcABC):  459.05226   459.05226   459.05226    90.00000    90.00000    90.00000  Step:          10  Bead:       0 x_centroid{angstrom}  cell{atomic_unit}
       C -3.46588e-01 -1.22056e-01  8.23978e-02
       O  8.46473e-01  2.68466e-01 -1.81847e-01
       H -5.28211e-02  8.91125e-01 -6.35694e-01
       H -4.19850e-01 -1.02579e+00  7.21170e-01
       L  6.21282e+01 -4.85350e+00  9.57220e-01
       L  1.90261e+00  6.38105e+00 -8.89674e-01
6
# CELL(abcABC):  459.05226   459.05226   459.05226    90.00000    90.00000    90.00000  Step:          11  Bead:       0 x_centroid{angstrom}  cell{atomic_unit}
       C -3.46881e-01 -1.23542e-01  8.20580e-02
       O  8.46029e-01  2.69232e-01 -1.81411e-01
       H -4.58302e-02  8.98012e-01 -6.33522e-01
       H -4.16431e-01 -1.02683e+00  7.16024e-01
       L  6.21661e+01 -5.17759e+00  1.02564e+00
       L  2.12990e+00  6.16385e+00 -7.65332e-01
6
# CELL(abcABC):  459.05226   459.05226   459.05226    90.00000    90.00000    90.00000  Step:          12  Bead:       0 x_centroid{angstrom}  cell{atomic_unit}
       C -3.48058e-01 -1.25122e-01  8.18198e-02
       O  8.47113e-01  2.70290e-01 -1.81077e-01
       H -4.93028e-02  8.96364e-01 -6.28144e-01
       H -4.16234e-01 -1.02289e+00  7.08112e-01
       L  6.21311e+01 -5.44645e+00  1.06043e+00
       L  2.31636e+00  5.97630e+00 -6.49681e-01
6
# CELL(abcABC):  459.05226   459.05226   459.05226    90.00000    90.00000    90.00000  Step:          13  Bead:       0 x_centroid{angstrom}  cell{atomic_unit}
       C -3.49738e-01 -1.26309e-01  8.17679e-02
       O  8.49232e-01  2.71249e-01 -1.80866e-01
       H -6.10752e-02  8.88085e-01 -6.19996e-01
       H -4.18152e-01 -1.01548e+00  6.97148e-01
       L  6.20573e+01 -5.63485e+00  1.12605e+00
       L  2.53678e+00  5.77052e+00 -5.62775e-01
6
# CELL(abcABC):  459.05226   459.05226   459.05226    90.00000    90.00000    90.00000  Step:          14  Bead:       0 x_centroid{angstrom}  cell{atomic_unit}
       C -3.51312e-01 -1.27029e-01  8.16370e-02
       O  8.51328e-01  2.71948e-01 -1.80645e-01
       H -7.29934e-02  8.78209e-01 -6.10074e-01
       H -4.20767e-01 -1.00793e+00  6.85209e-01
       L  6.19273e+01 -5.79511e+00  1.17905e+00
       L  2.70346e+00  5.58546e+00 -4.93254e-01
6
# CELL(abcABC):  459.05226   459.05226   459.05226    90.00000    90.00000    90.00000  Step:          15  Bead:       0 x_centroid{angstrom}  cell{atomic_unit}
       C -3.52549e-01 -1.27728e-01  8.10977e-02
       O  8.52612e-01  2.72734e-01 -1.80352e-01
       H -7.76661e-02  8.69727e-01 -6.00479e-01
       H -4.21755e-01 -1.00347e+00  6.77328e-01
       L  6.18239e+01 -5.88877e+00  1.21153e+00
       L  2.83488e+00  5.42378e+00 -4.13015e-01
6
# CELL(abcABC):  459.05226   459.05226   459.05226    90.00000    90.00000    90.00000  Step:          16  Bead:       0 x_centroid{angstrom}  cell{atomic_unit}
       C -3.52782e-01 -1.28272e-01  8.03842e-02
       O  8.52460e-01  2.73409e-01 -1.80195e-01
       H -7.24191e-02  8.64723e-01 -5.91758e-01
       H -4.21833e-01 -1.00261e+00  6.74527e-01
       L  6.17688e+01 -6.02048e+00  1.28230e+00
       L  2.92095e+00  5.40393e+00 -3.27338e-01
6
# CELL(abcABC):  459.05226   459.05226   459.05226    90.00000    90.00000    90.00000  Step:          17  Bead:       0 x_centroid{angstrom}  cell{atomic_unit}
       C -3.52570e-01 -1.28566e-01  7.95358e-02
       O  8.51205e-01  2.73862e-01 -1.80110e-01
       H -5.80614e-02  8.64310e-01 -5.83497e-01
       H -4.18832e-01 -1.00590e+00  6.74970e-01
       L  6.17375e+01 -6.08304e+00  1.29905e+00
       L  3.02378e+00  5.49389e+00 -2.36605e-01
6
# CELL(abcABC):  459.05226   459.05226   459.05226    90.00000    90.00000    90.00000  Step:          18  Bead:       0 x_centroid{angstrom}  cell{atomic_unit}
       C -3.52187e-01 -1.28629e-01  7.83912e-02
       O  8.49545e-01  2.74030e-01 -1.79889e-01
       H -4.15622e-02  8.69359e-01 -5.77671e-01
       H -4.13582e-01 -1.01297e+00  6.79265e-01
       L  6.17048e+01 -6.06826e+00  1.28586e+00
       L  3.11665e+00  5.66578e+00 -2.01793e-01
6
# CELL(abcABC):  459.05226   459.05226   459.05226    90.00000    90.00000    90.00000  Step:          19  Bead:       0 x_centroid{angstrom}  cell{atomic_unit}
       C -3.51751e-01 -1.28417e-01  7.68935e-02
       O  8.48168e-01  2.74000e-01 -1.79377e-01
       H -2.98465e-02  8.76400e-01 -5.72455e-01
       H -4.08596e-01 -1.02221e+00  6.83769e-01
       L  6.16225e+01 -6.00821e+00  1.25361e+00
       L  3.13770e+00  5.87642e+00 -1.67971e-01
6
# CELL(abcABC):  459.05226   459.05226   459.05226    90.00000    90.00000    90.00000  Step:          20  Bead:       0 x_centroid{angstrom}  cell{atomic_unit}
       C -3.52258e-01 -1.28293e-01  7.53887e-02
       O  8.48197e-01  2.73972e-01 -1.78828e-01
       H -2.74771e-02  8.84787e-01 -5.67510e-01
       H -4.05297e-01 -1.03182e+00  6.88044e-01
       L  6.14544e+01 -5.88881e+00  1.19409e+00
       L  3.14256e+00  6.11982e+00 -1.21269e-01
6
# CELL(abcABC):  459.05226   459.05226   459.05226    90.00000    90.00000    90.00000  Step:          21  Bead:       0 x_centroid{angstrom}  cell{atomic_unit}
       C -3.53347e-01 -1.27906e-01  7.41132e-02
       O  8.49539e-01  2.73728e-01 -1.78367e-01
       H -3.54359e-02  8.91831e-01 -5.63458e-01
       H -4.05507e-01 -1.03984e+00  6.91888e-01
       L  6.11882e+01 -5.73335e+00  1.08168e+00
       L  3.12783e+00  6.37412e+00 -3.55966e-02
6
# CELL(abcABC):  459.05226   459.05226   459.05226    90.00000    90.00000    90.00000  Step:          22  Bead:       0 x_centroid{angstrom}  cell{atomic_unit}
       C -3.54644e-01 -1.27735e-01  7.28926e-02
       O  8.51851e-01  2.73620e-01 -1.77771e-01
       H -5.25883e-02  8.96983e-01 -5.58777e-01
       H -4.09396e-01 -1.04554e+00  6.92276e-01
       L  6.08579e+01 -5.49230e+00  9.80142e-01
       L  3.06718e+00  6.57435e+00  8.67366e-02
6
# CELL(abcABC):  459.05226   459.05226   459.05226    90.00000    90.00000    90.00000  Step:          23  Bead:       0 x_centroid{angstrom}  cell{atomic_unit}
       C -3.55905e-01 -1.27883e-01  7.15791e-02
       O  8.54302e-01  2.73685e-01 -1.77108e-01
       H -7.14871e-02  9.00836e-01 -5.53931e-01
       H -4.14163e-01 -1.04891e+00  6.92560e-01
       L  6.05454e+01 -5.21442e+00  8.43967e-01
       L  3.00570e+00  6.75205e+00  2.27374e-01
6
# CELL(abcABC):  459.05226   459.05226   459.05226    90.00000    90.00000    90.00000  Step:          24  Bead:       0 x_centroid{angstrom}  cell{atomic_unit}
       C -3.56772e-01 -1.27997e-01  7.07183e-02
       O  8.56040e-01  2.73765e-01 -1.76812e-01
       H -8.46749e-02  9.03927e-01 -5.48338e-01
       H -4.18037e-01 -1.05219e+00  6.92534e-01
       L  6.02381e+01 -4.86119e+00  6.65174e-01
       L  2.95855e+00  6.90620e+00  3.78483e-01
6
# CELL(abcABC):  459.05226   459.05226   459.05226    90.00000    90.00000    90.00000  Step:          25  Bead:       0 x_centroid{angstrom}  cell{atomic_unit}
       C -3.56736e-01 -1.28132e-01  6.99636e-02
       O  8.56213e-01  2.73860e-01 -1.76647e-01
       H -8.59025e-02  9.06981e-01 -5.41153e-01
       H -4.19780e-01 -1.05547e+00  6.91718e-01
       L  5.99222e+01 -4.43080e+00  4.73837e-01
       L  2.90246e+00  7.06441e+00  5.84511e-01
6
# CELL(abcABC):  459.05226   459.05226   459.05226    90.00000    90.00000    90.00000  Step:          26  Bead:       0 x_centroid{angstrom}  cell{atomic_unit}
       C -3.55965e-01 -1.28591e-01  6.94993e-02
       O  8.54802e-01  2.74254e-01 -1.76707e-01
       H -7.30110e-02  9.09190e-01 -5.33597e-01
       H -4.19315e-01 -1.05878e+00  6.90625e-01
       L  5.97270e+01 -3.97907e+00  2.93404e-01
       L  2.81871e+00  7.20691e+00  8.00046e-01
6
# CELL(abcABC):  459.05226   459.05226   459.05226    90.00000    90.00000    90.00000  Step:          27  Bead:       0 x_centroid{angstrom}  cell{atomic_unit}
       C -3.54718e-01 -1.29093e-01  6.89849e-02
       O  8.52491e-01  2.74702e-01 -1.76650e-01
       H -5.30124e-02  9.09914e-01 -5.25562e-01
       H -4.17359e-01 -1.06097e+00  6.87764e-01
       L  5.95616e+01 -3.49650e+00  1.74149e-01
       L  2.72095e+00  7.32246e+00  1.02435e+00
6
# CELL(abcABC):  459.05226   459.05226   459.05226    90.00000    90.00000    90.00000  Step:          28  Bead:       0 x_centroid{angstrom}  cell{atomic_unit}
       C -3.53589e-01 -1.29796e-01  6.86995e-02
       O  8.50307e-01  2.75271e-01 -1.76643e-01
       H -3.38521e-02  9.09151e-01 -5.16193e-01
       H -4.15086e-01 -1.06114e+00  6.81642e-01
       L  5.93518e+01 -3.05128e+00  2.57448e-02
       L  2.53857e+00  7.41301e+00  1.24926e+00
6
# CELL(abcABC):  459.05226   459.05226   459.05226    90.00000    90.00000    90.00000  Step:          29  Bead:       0 x_centroid{angstrom}  cell{atomic_unit}
       C -3.52963e-01 -1.30805e-01  6.86325e-02
       O  8.49157e-01  2.76058e-01 -1.76682e-01
       H -2.33158e-02  9.06091e-01 -5.06235e-01
       H -4.14568e-01 -1.05885e+00  6.73049e-01
       L  5.90909e+01 -2.60783e+00 -9.63248e-02
       L  2.32210e+00  7.51526e+00  1.46886e+00
6
# CELL(abcABC):  459.05226   459.05226   459.05226    90.00000    90.00000    90.00000  Step:          30  Bead:       0 x_centroid{angstrom}  cell{atomic_unit}
       C -3.52898e-01 -1.31942e-01  6.89624e-02
       O  8.49267e-01  2.76908e-01 -1.76794e-01
       H -2.43725e-02  9.01284e-01 -4.97257e-01
       H -4.15700e-01 -1.05430e+00  6.61864e-01
       L  5.87575e+01 -2.15367e+00 -2.40817e-01
       L  2.05176e+00  7.63029e+00  1.69960e+00
6
# CELL(abcABC):  459.05226   459.05226   459.05226    90.00000    90.00000    90.00000  Step:          31  Bead:       0 x_centroid{angstrom}  cell{atomic_unit}
       C -3.53643e-01 -1.33254e-01  6.94841e-02
       O  8.50586e-01  2.77666e-01 -1.76852e-01
       H -3.33168e-02  8.98790e-01 -4.88111e-01
       H -4.18456e-01 -1.04848e+00  6.47370e-01
       L  5.83469e+01 -1.73962e+00 -3.56618e-01
       L  1.79072e+00  7.71840e+00  1.92991e+00
6
# CELL(abcABC):  459.05226   459.05226   459.05226    90.00000    90.00000    90.00000  Step:          32  Bead:       0 x_centroid{angstrom}  cell{atomic_unit}
       C -3.54627e-01 -1.34720e-01  7.01232e-02
       O  8.52164e-01  2.78349e-01 -1.76925e-01
       H -4.33310e-02  8.99504e-01 -4.79911e-01
       H -4.21405e-01 -1.04284e+00  6.32621e-01
       L  5.79612e+01 -1.30248e+00 -4.66810e-01
       L  1.53158e+00  7.77501e+00  2.20414e+00
6
# CELL(abcABC):  459.05226   459.05226   459.05226    90.00000    90.00000    90.00000  Step:          33  Bead:       0 x_centroid{angstrom}  cell{atomic_unit}
       C -3.55312e-01 -1.35867e-01  7.06669e-02
       O  8.53256e-01  2.78727e-01 -1.76948e-01
       H -5.05401e-02  9.04635e-01 -4.74286e-01
       H -4.22971e-01 -1.04063e+00  6.20752e-01
       L  5.75363e+01 -8.31362e-01 -5.37862e-01
       L  1.23504e+00  7.93241e+00  2.52430e+00
6
# CELL(abcABC):  459.05226   459.05226   459.05226    90.00000    90.00000    90.00000  Step:          34  Bead:       0 x_centroid{angstrom}  cell{atomic_unit}
       C -3.55427e-01 -1.36975e-01  7.12577e-02
       O  8.53384e-01  2.78876e-01 -1.76919e-01
       H -5.12613e-02  9.16098e-01 -4.71559e-01
       H -4.22526e-01 -1.04164e+00  6.10347e-01
       L  5.71039e+01 -3.70659e-01 -5.97423e-01
       L  9.41194e-01  8.14109e+00  2.91164e+00
6
# CELL(abcABC):  459.05226   459.05226   459.05226    90.00000    90.00000    90.00000  Step:          35  Bead:       0 x_centroid{angstrom}  cell{atomic_unit}
       C -3.55241e-01 -1.38159e-01  7.15395e-02
       O  8.52720e-01  2.79057e-01 -1.76748e-01
       H -4.50514e-02  9.31075e-01 -4.70273e-01
       H -4.19991e-01 -1.04576e+00  6.02850e-01
       L  5.66513e+01  8.01600e-02 -7.35147e-01
       L  6.29010e-01  8.41974e+00  3.28535e+00
6
# CELL(abcABC):  459.05226   459.05226   459.05226    90.00000    90.00000    90.00000  Step:          36  Bead:       0 x_centroid{angstrom}  cell{atomic_unit}
       C -3.54751e-01 -1.39220e-01  7.14970e-02
       O  8.51392e-01  2.79210e-01 -1.76491e-01
       H -3.31299e-02  9.47534e-01 -4.69884e-01
       H -4.16277e-01 -1.05246e+00  5.98809e-01
       L  5.62049e+01  6.07260e-01 -9.10849e-01
       L  3.49549e-01  8.72586e+00  3.60070e+00
6
# CELL(abcABC):  459.05226   459.05226   459.05226    90.00000    90.00000    90.00000  Step:          37  Bead:       0 x_centroid{angstrom}  cell{atomic_unit}
       C -3.54424e-01 -1.40089e-01  7.17179e-02
       O  8.50137e-01  2.79486e-01 -1.76368e-01
       H -2.03032e-02  9.61922e-01 -4.69289e-01
       H -4.12666e-01 -1.06132e+00  5.93593e-01
       L  5.57435e+01  1.13907e+00 -1.10808e+00
       L  4.32095e-02  9.01012e+00  3.88032e+00
6
# CELL(abcABC):  459.05226   459.05226   459.05226    90.00000    90.00000    90.00000  Step:          38  Bead:       0 x_centroid{angstrom}  cell{atomic_unit}
       C -3.54229e-01 -1.40957e-01  7.21418e-02
       O  8.49412e-01  2.80184e-01 -1.76444e-01
       H -1.15223e-02  9.70650e-01 -4.66431e-01
       H -4.11839e-01 -1.07119e+00  5.86851e-01
       L  5.52499e+01  1.66502e+00 -1.30298e+00
       L -2.42281e-01  9.23542e+00  4.14828e+00
6
# CELL(abcABC):  459.05226   459.05226   459.05226    90.00000    90.00000    90.00000  Step:          39  Bead:       0 x_centroid{angstrom}  cell{atomic_unit}
       C -3.54623e-01 -1.41588e-01  7.27112e-02
       O  8.49729e-01  2.81149e-01 -1.76601e-01
       H -8.51679e-03  9.72376e-01 -4.61741e-01
       H -4.14704e-01 -1.08106e+00  5.77926e-01
       L  5.46927e+01  2.11522e+00 -1.57818e+00
       L -5.57463e-01  9.42211e+00  4.32381e+00
6
# CELL(abcABC):  459.05226   459.05226   459.05226    90.00000    90.00000    90.00000  Step:          40  Bead:       0 x_centroid{angstrom}  cell{atomic_unit}
       C -3.55930e-01 -1.42044e-01  7.31219e-02
       O  8.51309e-01  2.82322e-01 -1.76625e-01
       H -1.17960e-02  9.67674e-01 -4.54283e-01
       H -4.20410e-01 -1.08987e+00  5.66029e-01
       L  5.40577e+01  2.57326e+00 -1.83660e+00
       L -8.70984e-01  9.53801e+00  4.44585e+00
6
# CELL(abcABC):  459.05226   459.05226   459.05226    90.00000    90.00000    90.00000  Step:          41  Bead:       0 x_centroid{angstrom}  cell{atomic_unit}
       C -3.57867e-01 -1.42226e-01  7.35774e-02
       O  8.53655e-01  2.83572e-01 -1.76707e-01
       H -1.84668e-02  9.57734e-01 -4.44813e-01
       H -4.27294e-01 -1.09782e+00  5.52518e-01
       L  5.32850e+01  2.94682e+00 -2.13544e+00
       L -1.21973e+00  9.56969e+00  4.56500e+00
6
# CELL(abcABC):  459.05226   459.05226   459.05226    90.00000    90.00000    90.00000  Step:          42  Bead:       0 x_centroid{angstrom}  cell{atomic_unit}
       C -3.59447e-01 -1.42369e-01  7.39144e-02
       O  8.55564e-01  2.84959e-01 -1.76729e-01
       H -2.34703e-02  9.45748e-01 -4.35957e-01
       H -4.33151e-01 -1.10632e+00  5.40084e-01
       L  5.25206e+01  3.23949e+00 -2.38332e+00
       L -1.55861e+00  9.61485e+00  4.64943e+00
6
# CELL(abcABC):  459.05226   459.05226   459.05226    90.00000    90.00000    90.00000  Step:          43  Bead:       0 x_centroid{angstrom}  cell{atomic_unit}
       C -3.60693e-01 -1.42415e-01  7.41586e-02
       O  8.56661e-01  2.86286e-01 -1.76652e-01
       H -2.15435e-02  9.35504e-01 -4.27857e-01
       H -4.37055e-01 -1.11680e+00  5.27966e-01
       L  5.17377e+01  3.48823e+00 -2.64334e+00
       L -1.88431e+00  9.72421e+00  4.72060e+00
6
# CELL(abcABC):  459.05226   459.05226   459.05226    90.00000    90.00000    90.00000  Step:          44  Bead:       0 x_centroid{angstrom}  cell{atomic_unit}
       C -3.61606e-01 -1.42414e-01  7.45883e-02
       O  8.56845e-01  2.87335e-01 -1.76734e-01
       H -1.05259e-02  9.31273e-01 -4.21075e-01
       H -4.39521e-01 -1.12943e+00  5.17445e-01
       L  5.09710e+01  3.70777e+00 -2.85495e+00
       L -2.19670e+00  9.89988e+00  4.79107e+00
6
# CELL(abcABC):  459.05226   459.05226   459.05226    90.00000    90.00000    90.00000  Step:          45  Bead:       0 x_centroid{angstrom}  cell{atomic_unit}
       C -3.61952e-01 -1.42409e-01  7.47398e-02
       O  8.56121e-01  2.88124e-01 -1.76571e-01
       H  7.09032e-03  9.32932e-01 -4.16262e-01
       H -4.40969e-01 -1.14394e+00  5.08315e-01
       L  5.02323e+01  3.90620e+00 -3.00781e+00
       L -2.46706e+00  1.01537e+01  4.80589e+00
6
# CELL(abcABC):  459.05226   459.05226   459.05226    90.00000    90.00000    90.00000  Step:          46  Bead:       0 x_centroid{angstrom}  cell{atomic_unit}
       C -3.62275e-01 -1.42326e-01  7.48359e-02
       O  8.55276e-01  2.88492e-01 -1.76314e-01
       H  2.58110e-02  9.40218e-01 -4.14060e-01
       H -4.41883e-01 -1.15832e+00  5.00923e-01
       L  4.94517e+01  4.05180e+00 -3.09894e+00
       L -2.69853e+00  1.04942e+01  4.82340e+00
6
# CELL(abcABC):  459.05226   459.05226   459.05226    90.00000    90.00000    90.00000  Step:          47  Bead:       0 x_centroid{angstrom}  cell{atomic_unit}
       C -3.62641e-01 -1.42758e-01  7.50873e-02
       O  8.54659e-01  2.88905e-01 -1.76061e-01
       H  4.14556e-02  9.51019e-01 -4.12611e-01
       H -4.42805e-01 -1.17074e+00  4.92499e-01
       L  4.86338e+01  4.18852e+00 -3.19830e+00
       L -2.93679e+00  1.07575e+01  4.85038e+00
6
# CELL(abcABC):  459.05226   459.05226   459.05226    90.00000    90.00000    90.00000  Step:          48  Bead:       0 x_centroid{angstrom}  cell{atomic_unit}
       C -3.63699e-01 -1.43459e-01  7.52870e-02
       O  8.55017e-01  2.89279e-01 -1.75569e-01
       H  5.01505e-02  9.62408e-01 -4.11571e-01
       H -4.43958e-01 -1.17987e+00  4.81290e-01
       L  4.77173e+01  4.25974e+00 -3.21490e+00
       L -3.12109e+00  1.09904e+01  4.83851e+00
6
# CELL(abcABC):  459.05226   459.05226   459.05226    90.00000    90.00000    90.00000  Step:          49  Bead:       0 x_centroid{angstrom}  cell{atomic_unit}
       C -3.65697e-01 -1.44956e-01  7.57287e-02
       O  8.56580e-01  2.90080e-01 -1.75173e-01
       H  5.23737e-02  9.72943e-01 -4.08451e-01
       H -4.46526e-01 -1.18545e+00  4.66654e-01
       L  4.66866e+01  4.35684e+00 -3.19758e+00
       L -3.30999e+00  1.11929e+01  4.75385e+00
6
# CELL(abcABC):  459.05226   459.05226   459.05226    90.00000    90.00000    90.00000  Step:          50  Bead:       0 x_centroid{angstrom}  cell{atomic_unit}
       C -3.68657e-01 -1.47007e-01  7.67480e-02
       O  8.59180e-01  2.91260e-01 -1.74998e-01
       H  5.03951e-02  9.79959e-01 -4.05304e-01
       H -4.49890e-01 -1.18687e+00  4.48649e-01
       L  4.56167e+01  4.37573e+00 -3.17604e+00
       L -3.44943e+00  1.13915e+01  4.61535e+00
6
# CELL(abcABC):  459.05226   459.05226   459.05226    90.00000    90.00000    90.00000  Step:          51  Bead:       0 x_centroid{angstrom}  cell{atomic_unit}
       C -3.72111e-01 -1.49487e-01  7.79661e-02
       O  8.62172e-01  2.92688e-01 -1.74990e-01
       H  4.85712e-02  9.84396e-01 -4.01035e-01
       H -4.53732e-01 -1.18448e+00  4.29826e-01
       L  4.45004e+01  4.35152e+00 -3.11683e+00
       L -3.55989e+00  1.15256e+01  4.39593e+00
6
# CELL(abcABC):  459.05226   459.05226   459.05226    90.00000    90.00000    90.00000  Step:          52  Bead:       0 x_centroid{angstrom}  cell{atomic_unit}
       C -3.75765e-01 -1.52008e-01  7.92282e-02
       O  8.64926e-01  2.94144e-01 -1.74984e-01
       H  5.22662e-02  9.87906e-01 -3.96777e-01
       H -4.56933e-01 -1.18111e+00  4.10512e-01
       L  4.33703e+01  4.28158e+00 -3.01186e+00
       L -3.67582e+00  1.16749e+01  4.15147e+00
6
# CELL(abcABC):  459.05226   459.05226   459.05226    90.00000    90.00000    90.00000  Step:          53  Bead:       0 x_centroid{angstrom}  cell{atomic_unit}
       C -3.79505e-01 -1.54760e-01  8.04388e-02
       O  8.67052e-01  2.95844e-01 -1.75017e-01
       H  6.46669e-02  9.90908e-01 -3.92115e-01
       H -4.57869e-01 -1.17836e+00  3.92013e-01
       L  4.22706e+01  4.18342e+00 -2.86659e+00
       L -3.75840e+00  1.18585e+01  3.87024e+00
6
# CELL(abcABC):  459.05226   459.05226   459.05226    90.00000    90.00000    90.00000  Step:          54  Bead:       0 x_centroid{angstrom}  cell{atomic_unit}
       C -3.83053e-01 -1.57323e-01  8.18270e-02
       O  8.68407e-01  2.97404e-01 -1.75138e-01
       H  8.53050e-02  9.95258e-01 -3.88812e-01
       H -4.57119e-01 -1.17693e+00  3.74164e-01
       L  4.11963e+01  4.06529e+00 -2.65800e+00
       L -3.79271e+00  1.20060e+01  3.54012e+00
6
# CELL(abcABC):  459.05226   459.05226   459.05226    90.00000    90.00000    90.00000  Step:          55  Bead:       0 x_centroid{angstrom}  cell{atomic_unit}
       C -3.86311e-01 -1.59884e-01  8.30584e-02
       O  8.68965e-01  2.98887e-01 -1.75120e-01
       H  1.12763e-01  1.00269e+00 -3.87247e-01
       H -4.54078e-01 -1.17743e+00  3.57656e-01
       L  4.01773e+01  3.92439e+00 -2.44185e+00
       L -3.76994e+00  1.22095e+01  3.26908e+00
6
# CELL(abcABC):  459.05226   459.05226   459.05226    90.00000    90.00000    90.00000  Step:          56  Bead:       0 x_centroid{angstrom}  cell{atomic_unit}
       C -3.89759e-01 -1.62522e-01  8.43672e-02
       O  8.69231e-01  3.00438e-01 -1.75207e-01
       H  1.46012e-01  1.01359e+00 -3.85353e-01
       H -4.49915e-01 -1.18158e+00  3.41606e-01
       L  3.91222e+01  3.77757e+00 -2.20340e+00
       L -3.71399e+00  1.24585e+01  2.92817e+00
6
# CELL(abcABC):  459.05226   459.05226   459.05226    90.00000    90.00000    90.00000  Step:          57  Bead:       0 x_centroid{angstrom}  cell{atomic_unit}
       C -3.93608e-01 -1.65306e-01  8.56508e-02
       O  8.69580e-01  3.02299e-01 -1.75360e-01
       H  1.82750e-01  1.02496e+00 -3.83972e-01
       H -4.45744e-01 -1.18930e+00  3.27452e-01
       L  3.79995e+01  3.58028e+00 -1.98620e+00
       L -3.66769e+00  1.26658e+01  2.53659e+00
6
# CELL(abcABC):  459.05226   459.05226   459.05226    90.00000    90.00000    90.00000  Step:          58  Bead:       0 x_centroid{angstrom}  cell{atomic_unit}
       C -3.98103e-01 -1.68384e-01  8.70547e-02
       O  8.70439e-01  3.04518e-01 -1.75584e-01
       H  2.20848e-01  1.03575e+00 -3.83446e-01
       H -4.43281e-01 -1.19862e+00  3.13889e-01
       L  3.67279e+01  3.32316e+00 -1.73712e+00
       L -3.55021e+00  1.28849e+01  2.06194e+00
6
# CELL(abcABC):  459.05226   459.05226   459.05226    90.00000    90.00000    90.00000  Step:          59  Bead:       0 x_centroid{angstrom}  cell{atomic_unit}
       C -4.03561e-01 -1.71501e-01  8.85066e-02
       O  8.72006e-01  3.06919e-01 -1.75886e-01
       H  2.59162e-01  1.04769e+00 -3.82030e-01
       H -4.40796e-01 -1.21149e+00  3.00084e-01
       L  3.53599e+01  3.05811e+00 -1.48341e+00
       L -3.36582e+00  1.30398e+01  1.59102e+00
6
# CELL(abcABC):  459.05226   459.05226   459.05226    90.00000    90.00000    90.00000  Step:          60  Bead:       0 x_centroid{angstrom}  cell{atomic_unit}
       C -4.10691e-01 -1.75116e-01  9.00085e-02
       O  8.74896e-01  3.09900e-01 -1.76202e-01
       H  2.97142e-01  1.05950e+00 -3.81282e-01
       H -4.38997e-01 -1.22746e+00  2.86588e-01
       L  3.38804e+01  2.80555e+00 -1.25754e+00
       L -3.15525e+00  1.31733e+01  1.11747e+00
6
# CELL(abcABC):  459.05226   459.05226   459.05226    90.00000    90.00000    90.00000  Step:          61  Bead:       0 x_centroid{angstrom}  cell{atomic_unit}
       C -4.19169e-01 -1.79294e-01  9.18839e-02
       O  8.78894e-01  3.13178e-01 -1.76685e-01
       H  3.34095e-01  1.07176e+00 -3.79969e-01
       H -4.37647e-01 -1.24192e+00  2.70726e-01
       L  3.23085e+01  2.60840e+00 -1.03395e+00
       L -2.92226e+00  1.32615e+01  6.38249e-01
6
# CELL(abcABC):  459.05226   459.05226   459.05226    90.00000    90.00000    90.00000  Step:          62  Bead:       0 x_centroid{angstrom}  cell{atomic_unit}
       C -4.28807e-01 -1.83383e-01  9.37494e-02
       O  8.83832e-01  3.16383e-01 -1.77107e-01
       H  3.71078e-01  1.08323e+00 -3.80283e-01
       H -4.37391e-01 -1.25546e+00  2.55708e-01
       L  3.05933e+01  2.38934e+00 -8.30894e-01
       L -2.64930e+00  1.33767e+01  7.15671e-02
6
# CELL(abcABC):  459.05226   459.05226   459.05226    90.00000    90.00000    90.00000  Step:          63  Bead:       0 x_centroid{angstrom}  cell{atomic_unit}
       C -4.39347e-01 -1.88186e-01  9.59856e-02
       O  8.89387e-01  3.20060e-01 -1.77776e-01
       H  4.09145e-01  1.09427e+00 -3.81348e-01
       H -4.37219e-01 -1.26760e+00  2.40946e-01
       L  2.87523e+01  2.20848e+00 -6.23833e-01
       L -2.33012e+00  1.34915e+01 -5.10185e-01
6
# CELL(abcABC):  459.05226   459.05226   459.05226    90.00000    90.00000    90.00000  Step:          64  Bead:       0 x_centroid{angstrom}  cell{atomic_unit}
       C -4.49963e-01 -1.93376e-01  9.82876e-02
       O  8.94905e-01  3.23822e-01 -1.78433e-01
       H  4.47333e-01  1.10746e+00 -3.82856e-01
       H -4.35619e-01 -1.27861e+00  2.25686e-01
       L  2.68619e+01  2.02090e+00 -4.41305e-01
       L -2.01237e+00  1.35527e+01 -1.12914e+00
6
# CELL(abcABC):  459.05226   459.05226   459.05226    90.00000    90.00000    90.00000  Step:          65  Bead:       0 x_centroid{angstrom}  cell{atomic_unit}
       C -4.60050e-01 -1.98625e-01  1.00460e-01
       O  8.99818e-01  3.27266e-01 -1.78916e-01
       H  4.86823e-01  1.12397e+00 -3.86118e-01
       H -4.32041e-01 -1.28721e+00  2.10926e-01
       L  2.49156e+01  1.85972e+00 -1.86969e-01
       L -1.65131e+00  1.36495e+01 -1.71995e+00
6
# CELL(abcABC):  459.05226   459.05226   459.05226    90.00000    90.00000    90.00000  Step:          66  Bead:       0 x_centroid{angstrom}  cell{atomic_unit}
       C -4.69351e-01 -2.03758e-01  1.02442e-01