6
# CELL(abcABC):  459.05226   459.05226   459.05226    90.00000    90.00000    90.00000  Step:           0  Bead:       0 x_centroid{angstrom}  cell{atomic_unit}
       C -3.39887e-01 -1.13437e-01  8.06659e-02
       O  8.43483e-01  2.62672e-01 -1.81512e-01
       H -7.35799e-02  8.16467e-01 -6.61432e-01
       H -4.30016e-01 -9.65701e-01  7.62278e-01
       L  6.13458e+01  0.00000e+00  0.00000e+00
       L  0.00000e+00  8.59064e+00  0.00000e+00
6
# CELL(abcABC):  459.05226   459.05226   459.05226    90.00000    90.00000    90.00000  Step:           1  Bead:       0 x_centroid{angstrom}  cell{atomic_unit}
       C -3.39614e-01 -1.13565e-01  8.05771e-02
       O  8.43349e-01  2.63142e-01 -1.81521e-01
       H -7.13894e-02  8.13711e-01 -6.58158e-01
       H -4.33649e-01 -9.68684e-01  7.60907e-01
       L  6.21855e+01 -1.48893e-01 -9.43265e-01
       L -2.47584e-01  8.37682e+00 -3.65654e-01
6
# CELL(abcABC):  459.05226   459.05226   459.05226    90.00000    90.00000    90.00000  Step:           2  Bead:       0 x_centroid{angstrom}  cell{atomic_unit}
       C -3.39264e-01 -1.13570e-01  8.04509e-02
       O  8.43252e-01  2.63413e-01 -1.81409e-01
       H -7.18623e-02  8.12111e-01 -6.55763e-01
       H -4.36134e-01 -9.71124e-01  7.58964e-01
       L  6.30349e+01 -3.33219e-01 -1.86399e+00
       L -5.03308e-01  8.17768e+00 -7.83457e-01
6
# CELL(abcABC):  459.05226   459.05226   459.05226    90.00000    90.00000    90.00000  Step:           3  Bead:       0 x_centroid{angstrom}  cell{atomic_unit}
       C -3.39100e-01 -1.13550e-01  8.02062e-02
       O  8.43328e-01  2.63552e-01 -1.81158e-01
       H -7.34024e-02  8.10944e-01 -6.55292e-01
       H -4.38109e-01 -9.72198e-01  7.58152e-01
       L  6.38466e+01 -4.48122e-01 -2.78581e+00
       L -6.67868e-01  7.90697e+00 -1.18575e+00
6
# CELL(abcABC):  459.05226   459.05226   459.05226    90.00000    90.00000    90.00000  Step:           4  Bead:       0 x_centroid{angstrom}  cell{atomic_unit}
       C -3.39120e-01 -1.13732e-01  8.00451e-02
       O  8.43592e-01  2.63792e-01 -1.80919e-01
       H -7.57957e-02  8.10473e-01 -6.56334e-01
       H -4.40034e-01 -9.73148e-01  7.57999e-01
       L  6.46820e+01 -5.67902e-01 -3.66039e+00
       L -8.24116e-01  7.64951e+00 -1.54303e+00
6
# CELL(abcABC):  459.05226   459.05226   459.05226    90.00000    90.00000    90.00000  Step:           5  Bead:       0 x_centroid{angstrom}  cell{atomic_unit}
       C -3.38955e-01 -1.14011e-01  7.97061e-02
       O  8.43913e-01  2.63961e-01 -1.80464e-01
       H -8.13603e-02  8.12366e-01 -6.59221e-01
       H -4.41885e-01 -9.74190e-01  7.58369e-01
       L  6.55072e+01 -7.20349e-01 -4.57822e+00
       L -9.90366e-01  7.39534e+00 -1.87969e+00
6
# CELL(abcABC):  459.05226   459.05226   459.05226    90.00000    90.00000    90.00000  Step:           6  Bead:       0 x_centroid{angstrom}  cell{atomic_unit}
       C -3.38626e-01 -1.14573e-01  7.95388e-02
       O  8.44133e-01  2.64069e-01 -1.80197e-01
       H -8.83387e-02  8.17332e-01 -6.62136e-01
       H -4.42706e-01 -9.73940e-01  7.59675e-01
       L  6.62883e+01 -9.06802e-01 -5.44187e+00
       L -1.08357e+00  7.15120e+00 -2.16540e+00
6
# CELL(abcABC):  459.05226   459.05226   459.05226    90.00000    90.00000    90.00000  Step:           7  Bead:       0 x_centroid{angstrom}  cell{atomic_unit}
       C -3.38132e-01 -1.15084e-01  7.93850e-02
       O  8.44151e-01  2.64031e-01 -1.79761e-01
       H -9.48325e-02  8.23746e-01 -6.66969e-01
       H -4.42757e-01 -9.73474e-01  7.60075e-01
       L  6.71222e+01 -1.04247e+00 -6.32740e+00
       L -1.22545e+00  6.96277e+00 -2.47890e+00
6
# CELL(abcABC):  459.05226   459.05226   459.05226    90.00000    90.00000    90.00000  Step:           8  Bead:       0 x_centroid{angstrom}  cell{atomic_unit}
       C -3.37511e-01 -1.15254e-01  7.86426e-02
       O  8.43959e-01  2.63746e-01 -1.78867e-01
       H -9.90540e-02  8.30732e-01 -6.71738e-01
       H -4.43251e-01 -9.73741e-01  7.60084e-01
       L  6.79337e+01 -1.20910e+00 -7.12738e+00
       L -1.34815e+00  6.81627e+00 -2.75649e+00
6
# CELL(abcABC):  459.05226   459.05226   459.05226    90.00000    90.00000    90.00000  Step:           9  Bead:       0 x_centroid{angstrom}  cell{atomic_unit}
       C -3.36554e-01 -1.15363e-01  7.79772e-02
       O  8.43412e-01  2.63522e-01 -1.77965e-01
       H -1.01451e-01  8.37102e-01 -6.76175e-01
       H -4.43980e-01 -9.75133e-01  7.58706e-01
       L  6.87608e+01 -1.33387e+00 -7.91716e+00
       L -1.44141e+00  6.72035e+00 -3.03540e+00
6
# CELL(abcABC):  459.05226   459.05226   459.05226    90.00000    90.00000    90.00000  Step:          10  Bead:       0 x_centroid{angstrom}  cell{atomic_unit}
       C -3.35331e-01 -1.15454e-01  7.72837e-02
       O  8.42676e-01  2.63377e-01 -1.77064e-01
       H -1.04652e-01  8.41602e-01 -6.78989e-01
       H -4.44105e-01 -9.76166e-01  7.56006e-01
       L  6.96367e+01 -1.40792e+00 -8.63689e+00
       L -1.51128e+00  6.63410e+00 -3.26829e+00
6
# CELL(abcABC):  459.05226   459.05226   459.05226    90.00000    90.00000    90.00000  Step:          11  Bead:       0 x_centroid{angstrom}  cell{atomic_unit}
       C -3.33886e-01 -1.15421e-01  7.67262e-02
       O  8.41725e-01  2.63213e-01 -1.76363e-01
       H -1.07504e-01  8.44497e-01 -6.79871e-01
       H -4.43854e-01 -9.76763e-01  7.52860e-01
       L  7.05416e+01 -1.51266e+00 -9.26983e+00
       L -1.55123e+00  6.55838e+00 -3.47113e+00
6
# CELL(abcABC):  459.05226   459.05226   459.05226    90.00000    90.00000    90.00000  Step:          12  Bead:       0 x_centroid{angstrom}  cell{atomic_unit}
       C -3.32308e-01 -1.15458e-01  7.57902e-02
       O  8.40871e-01  2.63115e-01 -1.75600e-01
       H -1.12003e-01  8.46651e-01 -6.78081e-01
       H -4.45095e-01 -9.76838e-01  7.50512e-01
       L  7.14417e+01 -1.56949e+00 -9.84069e+00
       L -1.55290e+00  6.47688e+00 -3.64613e+00
6
# CELL(abcABC):  459.05226   459.05226   459.05226    90.00000    90.00000    90.00000  Step:          13  Bead:       0 x_centroid{angstrom}  cell{atomic_unit}
       C -3.30723e-01 -1.15170e-01  7.45131e-02
       O  8.40117e-01  2.62813e-01 -1.74637e-01
       H -1.17934e-01  8.47529e-01 -6.75061e-01
       H -4.46574e-01 -9.76298e-01  7.47780e-01
       L  7.23253e+01 -1.60907e+00 -1.03498e+01
       L -1.52621e+00  6.42214e+00 -3.78547e+00
6
# CELL(abcABC):  459.05226   459.05226   459.05226    90.00000    90.00000    90.00000  Step:          14  Bead:       0 x_centroid{angstrom}  cell{atomic_unit}
       C -3.29302e-01 -1.14707e-01  7.27682e-02
       O  8.39580e-01  2.62469e-01 -1.73547e-01
       H -1.25632e-01  8.46556e-01 -6.68938e-01
       H -4.47786e-01 -9.75343e-01  7.45486e-01
       L  7.31977e+01 -1.67868e+00 -1.08128e+01
       L -1.47592e+00  6.38671e+00 -3.94789e+00
6
# CELL(abcABC):  459.05226   459.05226   459.05226    90.00000    90.00000    90.00000  Step:          15  Bead:       0 x_centroid{angstrom}  cell{atomic_unit}
       C -3.27630e-01 -1.14088e-01  7.07372e-02
       O  8.38849e-01  2.62066e-01 -1.72449e-01
       H -1.33588e-01  8.44312e-01 -6.61972e-01
       H -4.48638e-01 -9.74048e-01  7.45582e-01
       L  7.40514e+01 -1.70952e+00 -1.11947e+01
       L -1.43732e+00  6.40132e+00 -4.09155e+00
6
# CELL(abcABC):  459.05226   459.05226   459.05226    90.00000    90.00000    90.00000  Step:          16  Bead:       0 x_centroid{angstrom}  cell{atomic_unit}
       C -3.25994e-01 -1.13161e-01  6.87036e-02
       O  8.38056e-01  2.61521e-01 -1.71546e-01
       H -1.40207e-01  8.42190e-01 -6.54111e-01
       H -4.49419e-01 -9.74330e-01  7.47827e-01
       L  7.49259e+01 -1.76731e+00 -1.14601e+01
       L -1.41293e+00  6.47174e+00 -4.20617e+00
6
# CELL(abcABC):  459.05226   459.05226   459.05226    90.00000    90.00000    90.00000  Step:          17  Bead:       0 x_centroid{angstrom}  cell{atomic_unit}
       C -3.24158e-01 -1.12248e-01  6.64176e-02
       O  8.36975e-01  2.61101e-01 -1.70488e-01
       H -1.45299e-01  8.39132e-01 -6.47146e-01
       H -4.49531e-01 -9.75475e-01  7.51454e-01
       L  7.58221e+01 -1.86104e+00 -1.16009e+01
       L -1.42016e+00  6.54631e+00 -4.32385e+00
6
# CELL(abcABC):  459.05226   459.05226   459.05226    90.00000    90.00000    90.00000  Step:          18  Bead:       0 x_centroid{angstrom}  cell{atomic_unit}
       C -3.22297e-01 -1.11535e-01  6.39598e-02
       O  8.35799e-01  2.60733e-01 -1.69325e-01
       H -1.49264e-01  8.37572e-01 -6.41245e-01
       H -4.49558e-01 -9.76586e-01  7.56405e-01
       L  7.67499e+01 -1.95426e+00 -1.15923e+01
       L -1.42852e+00  6.65147e+00 -4.37835e+00
6
# CELL(abcABC):  459.05226   459.05226   459.05226    90.00000    90.00000    90.00000  Step:          19  Bead:       0 x_centroid{angstrom}  cell{atomic_unit}
       C -3.20295e-01 -1.10884e-01  6.16454e-02
       O  8.34552e-01  2.60470e-01 -1.68152e-01
       H -1.54519e-01  8.36623e-01 -6.36252e-01
       H -4.48885e-01 -9.79307e-01  7.60307e-01
       L  7.76743e+01 -1.99882e+00 -1.14361e+01
       L -1.40748e+00  6.85337e+00 -4.41758e+00
6
# CELL(abcABC):  459.05226   459.05226   459.05226    90.00000    90.00000    90.00000  Step:          20  Bead:       0 x_centroid{angstrom}  cell{atomic_unit}
       C -3.18320e-01 -1.10516e-01  5.92515e-02
       O  8.33379e-01  2.60305e-01 -1.66852e-01
       H -1.61613e-01  8.37011e-01 -6.31604e-01
       H -4.47210e-01 -9.81613e-01  7.63377e-01
       L  7.85305e+01 -1.96633e+00 -1.11739e+01
       L -1.34619e+00  7.10795e+00 -4.38499e+00
6
# CELL(abcABC):  459.05226   459.05226   459.05226    90.00000    90.00000    90.00000  Step:          21  Bead:       0 x_centroid{angstrom}  cell{atomic_unit}
       C -3.16197e-01 -1.09759e-01  5.66623e-02
       O  8.32343e-01  2.59715e-01 -1.65428e-01
       H -1.71388e-01  8.38452e-01 -6.27140e-01
       H -4.46807e-01 -9.82893e-01  7.66912e-01
       L  7.94182e+01 -1.95111e+00 -1.07935e+01
       L -1.29039e+00  7.41810e+00 -4.29107e+00
6
# CELL(abcABC):  459.05226   459.05226   459.05226    90.00000    90.00000    90.00000  Step:          22  Bead:       0 x_centroid{angstrom}  cell{atomic_unit}
       C -3.13772e-01 -1.09207e-01  5.43426e-02
       O  8.31180e-01  2.59121e-01 -1.64093e-01
       H -1.82699e-01  8.40139e-01 -6.23511e-01
       H -4.46421e-01 -9.81918e-01  7.69355e-01
       L  8.03159e+01 -1.91581e+00 -1.02693e+01
       L -1.26005e+00  7.75091e+00 -4.12539e+00
6
# CELL(abcABC):  459.05226   459.05226   459.05226    90.00000    90.00000    90.00000  Step:          23  Bead:       0 x_centroid{angstrom}  cell{atomic_unit}
       C -3.11149e-01 -1.08557e-01  5.19864e-02
       O  8.29935e-01  2.58363e-01 -1.62651e-01
       H -1.95484e-01  8.42666e-01 -6.19855e-01
       H -4.45673e-01 -9.80375e-01  7.70439e-01
       L  8.12341e+01 -1.92178e+00 -9.61260e+00
       L -1.21373e+00  8.14437e+00 -3.96149e+00
6
# CELL(abcABC):  459.05226   459.05226   459.05226    90.00000    90.00000    90.00000  Step:          24  Bead:       0 x_centroid{angstrom}  cell{atomic_unit}
       C -3.08063e-01 -1.08003e-01  4.97481e-02
       O  8.28232e-01  2.57459e-01 -1.61311e-01
       H -2.08432e-01  8.47738e-01 -6.15960e-01
       H -4.43004e-01 -9.77902e-01  7.71436e-01
       L  8.22092e+01 -1.94865e+00 -8.86722e+00
       L -1.18055e+00  8.56429e+00 -3.76193e+00
6
# CELL(abcABC):  459.05226   459.05226   459.05226    90.00000    90.00000    90.00000  Step:          25  Bead:       0 x_centroid{angstrom}  cell{atomic_unit}
       C -3.04737e-01 -1.07444e-01  4.72804e-02
       O  8.26369e-01  2.56322e-01 -1.59751e-01
       H -2.20840e-01  8.55680e-01 -6.12771e-01
       H -4.41207e-01 -9.74715e-01  7.72315e-01
       L  8.31795e+01 -1.93866e+00 -8.08757e+00
       L -1.14177e+00  8.99450e+00 -3.50140e+00
6
# CELL(abcABC):  459.05226   459.05226   459.05226    90.00000    90.00000    90.00000  Step:          26  Bead:       0 x_centroid{angstrom}  cell{atomic_unit}
       C -3.01201e-01 -1.06682e-01  4.48903e-02
       O  8.24202e-01  2.54983e-01 -1.58211e-01
       H -2.31885e-01  8.63530e-01 -6.09318e-01
       H -4.38455e-01 -9.70659e-01  7.72203e-01
       L  8.41927e+01 -1.88920e+00 -7.13491e+00
       L -1.14992e+00  9.45466e+00 -3.15506e+00
6
# CELL(abcABC):  459.05226   459.05226   459.05226    90.00000    90.00000    90.00000  Step:          27  Bead:       0 x_centroid{angstrom}  cell{atomic_unit}
       C -2.97522e-01 -1.05835e-01  4.26738e-02
       O  8.22009e-01  2.53621e-01 -1.56822e-01
       H -2.44746e-01  8.70525e-01 -6.05369e-01
       H -4.35217e-01 -9.66422e-01  7.71890e-01
       L  8.52783e+01 -1.81045e+00 -6.13746e+00
       L -1.13830e+00  9.92298e+00 -2.82510e+00
6
# CELL(abcABC):  459.05226   459.05226   459.05226    90.00000    90.00000    90.00000  Step:          28  Bead:       0 x_centroid{angstrom}  cell{atomic_unit}
       C -2.93740e-01 -1.04974e-01  4.05693e-02
       O  8.19940e-01  2.52102e-01 -1.55460e-01
       H -2.59951e-01  8.77223e-01 -6.01561e-01
       H -4.32868e-01 -9.59571e-01  7.70753e-01
       L  8.64401e+01 -1.72147e+00 -5.07919e+00
       L -1.12400e+00  1.03939e+01 -2.44225e+00
6
# CELL(abcABC):  459.05226   459.05226   459.05226    90.00000    90.00000    90.00000  Step:          29  Bead:       0 x_centroid{angstrom}  cell{atomic_unit}
       C -2.89795e-01 -1.04040e-01  3.84175e-02
       O  8.17901e-01  2.50540e-01 -1.54215e-01
       H -2.77761e-01  8.81354e-01 -5.96208e-01
       H -4.30397e-01 -9.50369e-01  7.70446e-01
       L  8.77105e+01 -1.62177e+00 -3.99917e+00
       L -1.12155e+00  1.08930e+01 -1.98783e+00
6
# CELL(abcABC):  459.05226   459.05226   459.05226    90.00000    90.00000    90.00000  Step:          30  Bead:       0 x_centroid{angstrom}  cell{atomic_unit}
       C -2.85796e-01 -1.02956e-01  3.65241e-02
       O  8.16053e-01  2.48798e-01 -1.53188e-01
       H -2.98721e-01  8.85706e-01 -5.91013e-01
       H -4.28495e-01 -9.40356e-01  7.70686e-01
       L  8.90206e+01 -1.47195e+00 -2.90883e+00
       L -1.08160e+00  1.14036e+01 -1.55958e+00
6
# CELL(abcABC):  459.05226   459.05226   459.05226    90.00000    90.00000    90.00000  Step:          31  Bead:       0 x_centroid{angstrom}  cell{atomic_unit}
       C -2.81402e-01 -1.01708e-01  3.44100e-02
       O  8.14102e-01  2.47061e-01 -1.52159e-01
       H -3.22684e-01  8.88853e-01 -5.84025e-01
       H -4.26751e-01 -9.31188e-01  7.71702e-01
       L  9.04321e+01 -1.30515e+00 -1.74261e+00
       L -9.81094e-01  1.19689e+01 -1.17237e+00
6
# CELL(abcABC):  459.05226   459.05226   459.05226    90.00000    90.00000    90.00000  Step:          32  Bead:       0 x_centroid{angstrom}  cell{atomic_unit}
       C -2.76866e-01 -9.99841e-02  3.22277e-02
       O  8.12147e-01  2.45110e-01 -1.51243e-01
       H -3.48326e-01  8.91669e-01 -5.75987e-01
       H -4.24962e-01 -9.24015e-01  7.74241e-01
       L  9.19603e+01 -1.07705e+00 -5.63342e-01
       L -9.53821e-01  1.25492e+01 -7.21416e-01
6
# CELL(abcABC):  459.05226   459.05226   459.05226    90.00000    90.00000    90.00000  Step:          33  Bead:       0 x_centroid{angstrom}  cell{atomic_unit}
       C -2.72471e-01 -9.78791e-02  3.00218e-02
       O  8.10579e-01  2.43030e-01 -1.50546e-01
       H -3.76630e-01  8.93632e-01 -5.66336e-01
       H -4.25054e-01 -9.18523e-01  7.78911e-01
       L  9.36184e+01 -8.40174e-01  6.39119e-01
       L -9.31716e-01  1.31884e+01 -2.63676e-01
6
# CELL(abcABC):  459.05226   459.05226   459.05226    90.00000    90.00000    90.00000  Step:          34  Bead:       0 x_centroid{angstrom}  cell{atomic_unit}
       C -2.68127e-01 -9.55838e-02  2.77578e-02
       O  8.09324e-01  2.40837e-01 -1.49934e-01
       H -4.08660e-01  8.95720e-01 -5.56019e-01
       H -4.25820e-01 -9.13644e-01  7.84940e-01
       L  9.53598e+01 -5.94826e-01  1.85391e+00
       L -9.11111e-01  1.38528e+01  2.07334e-01
6
# CELL(abcABC):  459.05226   459.05226   459.05226    90.00000    90.00000    90.00000  Step:          35  Bead:       0 x_centroid{angstrom}  cell{atomic_unit}
       C -2.63746e-01 -9.29466e-02  2.51695e-02
       O  8.08422e-01  2.38435e-01 -1.49325e-01
       H -4.45894e-01  8.97600e-01 -5.43558e-01
       H -4.27522e-01 -9.09322e-01  7.92741e-01
       L  9.71895e+01 -3.99677e-01  3.04622e+00
       L -8.33891e-01  1.45785e+01  6.97091e-01
6
# CELL(abcABC):  459.05226   459.05226   459.05226    90.00000    90.00000    90.00000  Step:          36  Bead:       0 x_centroid{angstrom}  cell{atomic_unit}
       C -2.59189e-01 -8.99149e-02  2.25076e-02
       O  8.07869e-01  2.35840e-01 -1.48803e-01
       H -4.89721e-01  8.98717e-01 -5.29507e-01
       H -4.30303e-01 -9.05910e-01  8.01263e-01
       L  9.90750e+01 -2.01301e-01  4.15398e+00
       L -7.25532e-01  1.53632e+01  1.17915e+00
6
# CELL(abcABC):  459.05226   459.05226   459.05226    90.00000    90.00000    90.00000  Step:          37  Bead:       0 x_centroid{angstrom}  cell{atomic_unit}
       C -2.54332e-01 -8.64046e-02  1.95212e-02
       O  8.07554e-01  2.32855e-01 -1.48312e-01
       H -5.40803e-01  8.99156e-01 -5.13294e-01
       H -4.33223e-01 -9.01361e-01  8.11974e-01
       L  1.01022e+02 -1.06279e-02  5.27152e+00
       L -6.12211e-01  1.62050e+01  1.65705e+00
6
# CELL(abcABC):  459.05226   459.05226   459.05226    90.00000    90.00000    90.00000  Step:          38  Bead:       0 x_centroid{angstrom}  cell{atomic_unit}
       C -2.49464e-01 -8.22827e-02  1.57656e-02
       O  8.07858e-01  2.29606e-01 -1.47453e-01
       H -6.00112e-01  8.97239e-01 -4.94921e-01
       H -4.37914e-01 -8.97579e-01  8.23870e-01
       L  1.03055e+02  1.66363e-01  6.37287e+00
       L -4.93111e-01  1.71154e+01  2.10047e+00
6
# CELL(abcABC):  459.05226   459.05226   459.05226    90.00000    90.00000    90.00000  Step:          39  Bead:       0 x_centroid{angstrom}  cell{atomic_unit}
       C -2.44899e-01 -7.74367e-02  1.20011e-02
       O  8.09034e-01  2.25986e-01 -1.46678e-01
       H -6.67218e-01  8.93549e-01 -4.74513e-01
       H -4.45094e-01 -8.94800e-01  8.35206e-01
       L  1.05203e+02  3.50827e-01  7.49494e+00
       L -3.79197e-01  1.80946e+01  2.46633e+00
6
# CELL(abcABC):  459.05226   459.05226   459.05226    90.00000    90.00000    90.00000  Step:          40  Bead:       0 x_centroid{angstrom}  cell{atomic_unit}
       C -2.41320e-01 -7.19953e-02  8.11841e-03
       O  8.11324e-01  2.22190e-01 -1.46030e-01
       H -7.40051e-01  8.84371e-01 -4.51052e-01
       H -4.52494e-01 -8.90902e-01  8.46983e-01
       L  1.07392e+02  5.61731e-01  8.54659e+00
       L -2.93909e-01  1.91361e+01  2.77986e+00
6
# CELL(abcABC):  459.05226   459.05226   459.05226    90.00000    90.00000    90.00000  Step:          41  Bead:       0 x_centroid{angstrom}  cell{atomic_unit}
       C -2.38891e-01 -6.57382e-02  4.19643e-03
       O  8.14999e-01  2.18051e-01 -1.45357e-01
       H -8.18973e-01  8.68628e-01 -4.25396e-01
       H -4.62173e-01 -8.84753e-01  8.56729e-01
       L  1.09717e+02  8.08749e-01  9.50944e+00
       L -1.96095e-01  2.02609e+01  3.03475e+00
6
# CELL(abcABC):  459.05226   459.05226   459.05226    90.00000    90.00000    90.00000  Step:          42  Bead:       0 x_centroid{angstrom}  cell{atomic_unit}
       C -2.38039e-01 -5.87882e-02  4.16190e-04
       O  8.20075e-01  2.13670e-01 -1.44574e-01
       H -8.99937e-01  8.46002e-01 -3.98416e-01
       H -4.73294e-01 -8.76135e-01  8.61780e-01
       L  1.12134e+02  1.01287e+00  1.03306e+01
       L -1.30162e-01  2.13911e+01  3.29207e+00
6
# CELL(abcABC):  459.05226   459.05226   459.05226    90.00000    90.00000    90.00000  Step:          43  Bead:       0 x_centroid{angstrom}  cell{atomic_unit}
       C -2.38875e-01 -5.15047e-02 -2.69104e-03
       O  8.26637e-01  2.09369e-01 -1.44050e-01
       H -9.81605e-01  8.16368e-01 -3.69683e-01
       H -4.87210e-01 -8.65755e-01  8.61279e-01
       L  1.14615e+02  1.20737e+00  1.10175e+01
       L -5.37457e-02  2.25514e+01  3.46340e+00
6
# CELL(abcABC):  459.05226   459.05226   459.05226    90.00000    90.00000    90.00000  Step:          44  Bead:       0 x_centroid{angstrom}  cell{atomic_unit}
       C -2.41130e-01 -4.41882e-02 -5.27887e-03
       O  8.34292e-01  2.05238e-01 -1.43826e-01
       H -1.06301e+00  7.80510e-01 -3.38658e-01
       H -5.01857e-01 -8.52229e-01  8.57125e-01
       L  1.17119e+02  1.33873e+00  1.16145e+01
       L  8.31095e-03  2.37317e+01  3.61073e+00
6
# CELL(abcABC):  459.05226   459.05226   459.05226    90.00000    90.00000    90.00000  Step:          45  Bead:       0 x_centroid{angstrom}  cell{atomic_unit}
       C -2.44849e-01 -3.69020e-02 -7.01001e-03
       O  8.42893e-01  2.01273e-01 -1.43866e-01
       H -1.14190e+00  7.39498e-01 -3.07363e-01
       H -5.16482e-01 -8.35782e-01  8.46790e-01
       L  1.19560e+02  1.40058e+00  1.20540e+01
       L -2.94746e-04  2.49376e+01  3.73455e+00
6
# CELL(abcABC):  459.05226   459.05226   459.05226    90.00000    90.00000    90.00000  Step:          46  Bead:       0 x_centroid{angstrom}  cell{atomic_unit}
       C -2.49993e-01 -2.97648e-02 -7.79476e-03
       O  8.52413e-01  1.97572e-01 -1.44085e-01
       H -1.21611e+00  6.93466e-01 -2.76352e-01
       H -5.33446e-01 -8.16713e-01  8.28373e-01
       L  1.22020e+02  1.42159e+00  1.23705e+01
       L -2.19735e-03  2.61291e+01  3.84060e+00
6
# CELL(abcABC):  459.05226   459.05226   459.05226    90.00000    90.00000    90.00000  Step:          47  Bead:       0 x_centroid{angstrom}  cell{atomic_unit}
       C -2.55624e-01 -2.31941e-02 -7.73516e-03
       O  8.61902e-01  1.94251e-01 -1.44439e-01
       H -1.28394e+00  6.44805e-01 -2.46798e-01
       H -5.50524e-01 -7.94305e-01  8.03588e-01
       L  1.24562e+02  1.42068e+00  1.25530e+01
       L  1.82150e-02  2.73478e+01  3.92917e+00
6
# CELL(abcABC):  459.05226   459.05226   459.05226    90.00000    90.00000    90.00000  Step:          48  Bead:       0 x_centroid{angstrom}  cell{atomic_unit}
       C -2.60922e-01 -1.71490e-02 -6.91962e-03
       O  8.70810e-01  1.91281e-01 -1.44883e-01
       H -1.34627e+00  5.95381e-01 -2.19225e-01
       H -5.67857e-01 -7.70440e-01  7.73288e-01
       L  1.27151e+02  1.44131e+00  1.25928e+01
       L -1.58034e-03  2.85791e+01  3.99642e+00
6
# CELL(abcABC):  459.05226   459.05226   459.05226    90.00000    90.00000    90.00000  Step:          49  Bead:       0 x_centroid{angstrom}  cell{atomic_unit}
       C -2.65244e-01 -1.17604e-02 -5.23858e-03
       O  8.78628e-01  1.88742e-01 -1.45538e-01
       H -1.40287e+00  5.45897e-01 -1.94216e-01
       H -5.85315e-01 -7.45512e-01  7.38671e-01
       L  1.29817e+02  1.41973e+00  1.25307e+01
       L  2.04793e-02  2.97815e+01  3.99988e+00
6
# CELL(abcABC):  459.05226   459.05226   459.05226    90.00000    90.00000    90.00000  Step:          50  Bead:       0 x_centroid{angstrom}  cell{atomic_unit}
       C -2.68364e-01 -6.41482e-03 -2.80897e-03
       O  8.85188e-01  1.86191e-01 -1.46384e-01
       H -1.45378e+00  4.98169e-01 -1.72629e-01
       H -6.02862e-01 -7.21635e-01  7.01683e-01
       L  1.32582e+02  1.44898e+00  1.23465e+01
       L  1.09813e-02  3.09299e+01  3.95853e+00
6
# CELL(abcABC):  459.05226   459.05226   459.05226    90.00000    90.00000    90.00000  Step:          51  Bead:       0 x_centroid{angstrom}  cell{atomic_unit}
       C -2.70129e-01 -1.22363e-03 -4.82357e-05
       O  8.90368e-01  1.83832e-01 -1.47372e-01
       H -1.49896e+00  4.53031e-01 -1.54485e-01
       H -6.20484e-01 -7.01526e-01  6.66570e-01
       L  1.35492e+02  1.42440e+00  1.19863e+01
       L  3.85462e-02  3.20925e+01  3.88550e+00
6
# CELL(abcABC):  459.05226   459.05226   459.05226    90.00000    90.00000    90.00000  Step:          52  Bead:       0 x_centroid{angstrom}  cell{atomic_unit}
       C -2.70889e-01  4.01424e-03  2.91253e-03
       O  8.94285e-01  1.81674e-01 -1.48573e-01
       H -1.53707e+00  4.10666e-01 -1.40378e-01
       H -6.37121e-01 -6.87933e-01  6.36563e-01
       L  1.38481e+02  1.35355e+00  1.15420e+01
       L  6.93065e-02  3.32765e+01  3.73835e+00
6
# CELL(abcABC):  459.05226   459.05226   459.05226    90.00000    90.00000    90.00000  Step:          53  Bead:       0 x_centroid{angstrom}  cell{atomic_unit}
       C -2.71233e-01  9.50143e-03  5.99892e-03
       O  8.97424e-01  1.79748e-01 -1.50031e-01
       H -1.56702e+00  3.71858e-01 -1.31106e-01
       H -6.54503e-01 -6.84568e-01  6.14052e-01
       L  1.41409e+02  1.28889e+00  1.10000e+01
       L  9.23706e-02  3.45115e+01  3.56712e+00
6
# CELL(abcABC):  459.05226   459.05226   459.05226    90.00000    90.00000    90.00000  Step:          54  Bead:       0 x_centroid{angstrom}  cell{atomic_unit}
       C -2.72162e-01  1.56939e-02  9.11499e-03
       O  9.00262e-01  1.77713e-01 -1.51750e-01
       H -1.58585e+00  3.36759e-01 -1.26670e-01
       H -6.71272e-01 -6.91635e-01  6.00217e-01
       L  1.44321e+02  1.20482e+00  1.03886e+01
       L  1.35369e-01  3.58236e+01  3.34748e+00
6
# CELL(abcABC):  459.05226   459.05226   459.05226    90.00000    90.00000    90.00000  Step:          55  Bead:       0 x_centroid{angstrom}  cell{atomic_unit}
       C -2.73539e-01  2.21725e-02  1.18731e-02
       O  9.02696e-01  1.75786e-01 -1.53460e-01
       H -1.59419e+00  3.05006e-01 -1.26579e-01
       H -6.86729e-01 -7.07226e-01  5.94911e-01
       L  1.47217e+02  1.15788e+00  9.71012e+00
       L  1.42970e-01  3.72261e+01  3.08465e+00
6
# CELL(abcABC):  459.05226   459.05226   459.05226    90.00000    90.00000    90.00000  Step:          56  Bead:       0 x_centroid{angstrom}  cell{atomic_unit}
       C -2.75453e-01  2.84805e-02  1.45228e-02
       O  9.04732e-01  1.74106e-01 -1.55178e-01
       H -1.59322e+00  2.78362e-01 -1.30994e-01
       H -6.98799e-01 -7.29796e-01  5.95576e-01
       L  1.50092e+02  1.09323e+00  8.96155e+00
       L  1.61473e-01  3.86050e+01  2.83054e+00
6
# CELL(abcABC):  459.05226   459.05226   459.05226    90.00000    90.00000    90.00000  Step:          57  Bead:       0 x_centroid{angstrom}  cell{atomic_unit}
       C -2.77812e-01  3.42177e-02  1.73860e-02
       O  9.06205e-01  1.72660e-01 -1.56896e-01
       H -1.58289e+00  2.58763e-01 -1.40943e-01
       H -7.05987e-01 -7.56261e-01  5.99294e-01
       L  1.53023e+02  9.81753e-01  8.14343e+00
       L  1.53908e-01  3.99036e+01  2.50324e+00
6
# CELL(abcABC):  459.05226   459.05226   459.05226    90.00000    90.00000    90.00000  Step:          58  Bead:       0 x_centroid{angstrom}  cell{atomic_unit}
       C -2.80330e-01  3.87224e-02  2.09187e-02
       O  9.06960e-01  1.71665e-01 -1.58827e-01
       H -1.56556e+00  2.46285e-01 -1.56907e-01
       H -7.06879e-01 -7.82221e-01  6.04515e-01
       L  1.55997e+02  8.24434e-01  7.21109e+00
       L  1.01917e-01  4.10961e+01  2.15073e+00
6
# CELL(abcABC):  459.05226   459.05226   459.05226    90.00000    90.00000    90.00000  Step:          59  Bead:       0 x_centroid{angstrom}  cell{atomic_unit}
       C -2.82704e-01  4.12540e-02  2.53801e-02
       O  9.06897e-01  1.71577e-01 -1.61055e-01
       H -1.54336e+00  2.41055e-01 -1.77850e-01
       H -7.01382e-01 -8.06289e-01  6.08369e-01
       L  1.58928e+02  7.07275e-01  6.23425e+00
       L  8.96175e-02  4.21650e+01  1.83799e+00
6
# CELL(abcABC):  459.05226   459.05226   459.05226    90.00000    90.00000    90.00000  Step:          60  Bead:       0 x_centroid{angstrom}  cell{atomic_unit}
       C -2.84650e-01  4.13957e-02  3.07578e-02
       O  9.05843e-01  1.72631e-01 -1.63362e-01
       H -1.51770e+00  2.42476e-01 -2.04819e-01
       H -6.88741e-01 -8.26551e-01  6.08616e-01
       L  1.61926e+02  5.75910e-01  5.16459e+00
       L  3.71838e-02  4.30849e+01  1.52735e+00
6
# CELL(abcABC):  459.05226   459.05226   459.05226    90.00000    90.00000    90.00000  Step:          61  Bead:       0 x_centroid{angstrom}  cell{atomic_unit}
       C -2.86868e-01  3.93077e-02  3.73777e-02
       O  9.04370e-01  1.74493e-01 -1.66019e-01
       H -1.48817e+00  2.50701e-01 -2.37674e-01
       H -6.70050e-01 -8.39808e-01  6.05555e-01
       L  1.64959e+02  4.33122e-01  4.05276e+00
       L -5.41116e-02  4.38913e+01  1.21118e+00
6
# CELL(abcABC):  459.05226   459.05226   459.05226    90.00000    90.00000    90.00000  Step:          62  Bead:       0 x_centroid{angstrom}  cell{atomic_unit}
       C -2.89544e-01  3.46036e-02  4.52068e-02
       O  9.02520e-01  1.77456e-01 -1.69069e-01
       H -1.45407e+00  2.65861e-01 -2.75379e-01
       H -6.44455e-01 -8.46232e-01  5.99151e-01
       L  1.67911e+02  3.19541e-01  2.91272e+00
       L -1.52513e-01  4.45048e+01  9.12927e-01
6
# CELL(abcABC):  459.05226   459.05226   459.05226    90.00000    90.00000    90.00000  Step:          63  Bead:       0 x_centroid{angstrom}  cell{atomic_unit}
       C -2.92255e-01  2.77155e-02  5.38219e-02
       O  9.00103e-01  1.81435e-01 -1.72331e-01
       H -1.41516e+00  2.85432e-01 -3.17246e-01
       H -6.14202e-01 -8.47047e-01  5.90966e-01
       L  1.70816e+02  1.82507e-01  1.70591e+00
       L -2.69649e-01  4.49554e+01  6.10838e-01
6
# CELL(abcABC):  459.05226   459.05226   459.05226    90.00000    90.00000    90.00000  Step:          64  Bead:       0 x_centroid{angstrom}  cell{atomic_unit}
       C -2.95277e-01  1.90109e-02  6.25625e-02
       O  8.97224e-01  1.86281e-01 -1.75481e-01
       H -1.36996e+00  3.09823e-01 -3.61252e-01
       H -5.79189e-01 -8.44706e-01  5.81672e-01
       L  1.73672e+02  2.64847e-02  4.67284e-01
       L -3.85195e-01  4.52454e+01  2.84777e-01
6
# CELL(abcABC):  459.05226   459.05226   459.05226    90.00000    90.00000    90.00000  Step:          65  Bead:       0 x_centroid{angstrom}  cell{atomic_unit}
       C -2.99444e-01  8.82434e-03  7.12980e-02
       O  8.94717e-01  1.92080e-01 -1.78668e-01
       H -1.31786e+00  3.37320e-01 -4.05667e-01
       H -5.43302e-01 -8.42892e-01  5.73433e-01
       L  1.76442e+02 -1.59086e-01 -7.57893e-01
       L -4.56119e-01  4.54651e+01 -6.07972e-02
6
# CELL(abcABC):  459.05226   459.05226   459.05226    90.00000    90.00000    90.00000  Step:          66  Bead:       0 x_centroid{angstrom}  cell{atomic_unit}
       C -3.04328e-01 -1.81047e-03  7.92686e-02