6
# CELL(abcABC):  459.05226   459.05226   459.05226    90.00000    90.00000    90.00000  Step:           0  Bead:       0 x_centroid{angstrom}  cell{atomic_unit}
       C -3.39887e-01 -1.13437e-01  8.06659e-02
       O  8.43483e-01  2.62672e-01 -1.81512e-01
       H -7.35799e-02  8.16467e-01 -6.61432e-01
       H -4.30016e-01 -9.65701e-01  7.62278e-01
       L  6.13458e+01  0.00000e+00  0.00000e+00
       L  0.00000e+00  8.59064e+00  0.00000e+00
6
# CELL(abcABC):  459.05226   459.05226   459.05226    90.00000    90.00000    90.00000  Step:           1  Bead:       0 x_centroid{angstrom}  cell{atomic_unit}
       C -3.40933e-01 -1.15200e-01  7.99092e-02
       O  8.44640e-01  2.63520e-01 -1.80875e-01
       H -7.67487e-02  8.13188e-01 -6.61651e-01
       H -4.32838e-01 -9.54520e-01  7.61781e-01
       L  6.13359e+01 -2.40083e-01 -2.99503e-01
       L  1.95891e-01  8.18598e+00 -4.07843e-01
6
# CELL(abcABC):  459.05226   459.05226   459.05226    90.00000    90.00000    90.00000  Step:           2  Bead:       0 x_centroid{angstrom}  cell{atomic_unit}
       C -3.41717e-01 -1.16928e-01  7.87918e-02
       O  8.45390e-01  2.64287e-01 -1.80086e-01
       H -7.69089e-02  8.11418e-01 -6.62101e-01
       H -4.35354e-01 -9.44002e-01  7.63399e-01
       L  6.13538e+01 -5.03418e-01 -6.04399e-01
       L  3.73204e-01  7.80571e+00 -7.97620e-01
6
# CELL(abcABC):  459.05226   459.05226   459.05226    90.00000    90.00000    90.00000  Step:           3  Bead:       0 x_centroid{angstrom}  cell{atomic_unit}
       C -3.42254e-01 -1.18733e-01  7.77409e-02
       O  8.45565e-01  2.65116e-01 -1.79432e-01
       H -7.18531e-02  8.11246e-01 -6.62825e-01
       H -4.36941e-01 -9.35121e-01  7.66642e-01
       L  6.14408e+01 -7.63936e-01 -9.56861e-01
       L  5.65758e-01  7.41658e+00 -1.14689e+00
6
# CELL(abcABC):  459.05226   459.05226   459.05226    90.00000    90.00000    90.00000  Step:           4  Bead:       0 x_centroid{angstrom}  cell{atomic_unit}
       C -3.42824e-01 -1.20669e-01  7.65346e-02
       O  8.45599e-01  2.65906e-01 -1.78649e-01
       H -6.44295e-02  8.13788e-01 -6.65278e-01
       H -4.38253e-01 -9.26829e-01  7.71376e-01
       L  6.15440e+01 -1.00075e+00 -1.29057e+00
       L  7.24183e-01  7.09704e+00 -1.42817e+00
6
# CELL(abcABC):  459.05226   459.05226   459.05226    90.00000    90.00000    90.00000  Step:           5  Bead:       0 x_centroid{angstrom}  cell{atomic_unit}
       C -3.43335e-01 -1.22284e-01  7.50784e-02
       O  8.45546e-01  2.66643e-01 -1.77861e-01
       H -5.53379e-02  8.16550e-01 -6.68612e-01
       H -4.40532e-01 -9.21770e-01  7.79874e-01
       L  6.16290e+01 -1.22011e+00 -1.60946e+00
       L  8.56748e-01  6.81065e+00 -1.68392e+00
6
# CELL(abcABC):  459.05226   459.05226   459.05226    90.00000    90.00000    90.00000  Step:           6  Bead:       0 x_centroid{angstrom}  cell{atomic_unit}
       C -3.43929e-01 -1.23766e-01  7.35886e-02
       O  8.45714e-01  2.67432e-01 -1.76999e-01
       H -4.90047e-02  8.18037e-01 -6.73160e-01
       H -4.42567e-01 -9.17852e-01  7.88815e-01
       L  6.17074e+01 -1.46895e+00 -1.95305e+00
       L  9.87046e-01  6.55768e+00 -1.94441e+00
6
# CELL(abcABC):  459.05226   459.05226   459.05226    90.00000    90.00000    90.00000  Step:           7  Bead:       0 x_centroid{angstrom}  cell{atomic_unit}
       C -3.44286e-01 -1.25222e-01  7.20846e-02
       O  8.46115e-01  2.68319e-01 -1.76146e-01
       H -4.74827e-02  8.17404e-01 -6.78631e-01
       H -4.46272e-01 -9.13645e-01  7.98918e-01
       L  6.17089e+01 -1.74488e+00 -2.23184e+00
       L  1.09920e+00  6.27544e+00 -2.12251e+00
6
# CELL(abcABC):  459.05226   459.05226   459.05226    90.00000    90.00000    90.00000  Step:           8  Bead:       0 x_centroid{angstrom}  cell{atomic_unit}
       C -3.44859e-01 -1.26460e-01  7.04450e-02
       O  8.47093e-01  2.69120e-01 -1.75267e-01
       H -5.09403e-02  8.15280e-01 -6.83444e-01
       H -4.51527e-01 -9.09196e-01  8.09526e-01
       L  6.16729e+01 -2.00446e+00 -2.46404e+00
       L  1.19612e+00  6.00432e+00 -2.27608e+00
6
# CELL(abcABC):  459.05226   459.05226   459.05226    90.00000    90.00000    90.00000  Step:           9  Bead:       0 x_centroid{angstrom}  cell{atomic_unit}
       C -3.45369e-01 -1.27738e-01  6.89714e-02
       O  8.48253e-01  2.70044e-01 -1.74577e-01
       H -5.71878e-02  8.11953e-01 -6.87716e-01
       H -4.57602e-01 -9.04993e-01  8.20618e-01
       L  6.15614e+01 -2.29415e+00 -2.72059e+00
       L  1.27872e+00  5.72485e+00 -2.39673e+00
6
# CELL(abcABC):  459.05226   459.05226   459.05226    90.00000    90.00000    90.00000  Step:          10  Bead:       0 x_centroid{angstrom}  cell{atomic_unit}
       C -3.46060e-01 -1.28749e-01  6.72358e-02
       O  8.49533e-01  2.70957e-01 -1.73666e-01
       H -6.30256e-02  8.06537e-01 -6.92555e-01
       H -4.63825e-01 -9.01752e-01  8.31820e-01
       L  6.14442e+01 -2.53172e+00 -2.92196e+00
       L  1.33258e+00  5.46625e+00 -2.45820e+00
6
# CELL(abcABC):  459.05226   459.05226   459.05226    90.00000    90.00000    90.00000  Step:          11  Bead:       0 x_centroid{angstrom}  cell{atomic_unit}
       C -3.46481e-01 -1.29568e-01  6.55725e-02
       O  8.50230e-01  2.71770e-01 -1.72900e-01
       H -6.36035e-02  7.99952e-01 -6.96985e-01
       H -4.69266e-01 -8.98036e-01  8.44009e-01
       L  6.13307e+01 -2.71936e+00 -3.09859e+00
       L  1.38642e+00  5.15949e+00 -2.47705e+00
6
# CELL(abcABC):  459.05226   459.05226   459.05226    90.00000    90.00000    90.00000  Step:          12  Bead:       0 x_centroid{angstrom}  cell{atomic_unit}
       C -3.46567e-01 -1.30308e-01  6.40244e-02
       O  8.50305e-01  2.72541e-01 -1.72254e-01
       H -6.02312e-02  7.93074e-01 -7.01030e-01
       H -4.72766e-01 -8.94280e-01  8.56404e-01
       L  6.11797e+01 -2.94406e+00 -3.29125e+00
       L  1.47736e+00  4.82859e+00 -2.55543e+00
6
# CELL(abcABC):  459.05226   459.05226   459.05226    90.00000    90.00000    90.00000  Step:          13  Bead:       0 x_centroid{angstrom}  cell{atomic_unit}
       C -3.46533e-01 -1.31089e-01  6.22867e-02
       O  8.49983e-01  2.73418e-01 -1.71436e-01
       H -5.33763e-02  7.84558e-01 -7.05227e-01
       H -4.74858e-01 -8.90112e-01  8.68456e-01
       L  6.10383e+01 -3.11796e+00 -3.45178e+00
       L  1.52295e+00  4.51391e+00 -2.64339e+00
6
# CELL(abcABC):  459.05226   459.05226   459.05226    90.00000    90.00000    90.00000  Step:          14  Bead:       0 x_centroid{angstrom}  cell{atomic_unit}
       C -3.46430e-01 -1.32364e-01  6.05326e-02
       O  8.49494e-01  2.74561e-01 -1.70513e-01
       H -4.52531e-02  7.76636e-01 -7.10180e-01
       H -4.76401e-01 -8.84879e-01  8.79789e-01
       L  6.09165e+01 -3.30943e+00 -3.60158e+00
       L  1.54586e+00  4.19420e+00 -2.73686e+00
6
# CELL(abcABC):  459.05226   459.05226   459.05226    90.00000    90.00000    90.00000  Step:          15  Bead:       0 x_centroid{angstrom}  cell{atomic_unit}
       C -3.46143e-01 -1.33785e-01  5.89879e-02
       O  8.48838e-01  2.75756e-01 -1.69522e-01
       H -3.80179e-02  7.68281e-01 -7.16072e-01
       H -4.76603e-01 -8.78219e-01  8.88423e-01
       L  6.07984e+01 -3.48350e+00 -3.67047e+00
       L  1.58748e+00  3.76117e+00 -2.79580e+00
6
# CELL(abcABC):  459.05226   459.05226   459.05226    90.00000    90.00000    90.00000  Step:          16  Bead:       0 x_centroid{angstrom}  cell{atomic_unit}
       C -3.45710e-01 -1.35282e-01  5.77065e-02
       O  8.48377e-01  2.76978e-01 -1.68508e-01
       H -3.41675e-02  7.58747e-01 -7.21920e-01
       H -4.78206e-01 -8.69926e-01  8.93488e-01
       L  6.06523e+01 -3.62495e+00 -3.72554e+00
       L  1.56910e+00  3.32299e+00 -2.82662e+00
6
# CELL(abcABC):  459.05226   459.05226   459.05226    90.00000    90.00000    90.00000  Step:          17  Bead:       0 x_centroid{angstrom}  cell{atomic_unit}
       C -3.45824e-01 -1.37068e-01  5.64152e-02
       O  8.48702e-01  2.78274e-01 -1.67219e-01
       H -3.52720e-02  7.50353e-01 -7.29168e-01
       H -4.80763e-01 -8.60510e-01  8.95718e-01
       L  6.04468e+01 -3.77431e+00 -3.79294e+00
       L  1.52576e+00  2.89653e+00 -2.86018e+00
6
# CELL(abcABC):  459.05226   459.05226   459.05226    90.00000    90.00000    90.00000  Step:          18  Bead:       0 x_centroid{angstrom}  cell{atomic_unit}
       C -3.45982e-01 -1.38993e-01  5.54340e-02
       O  8.49087e-01  2.79502e-01 -1.66123e-01
       H -3.73923e-02  7.42745e-01 -7.36479e-01
       H -4.82690e-01 -8.49166e-01  8.97312e-01
       L  6.01850e+01 -3.88041e+00 -3.84309e+00
       L  1.44446e+00  2.49068e+00 -2.77625e+00
6
# CELL(abcABC):  459.05226   459.05226   459.05226    90.00000    90.00000    90.00000  Step:          19  Bead:       0 x_centroid{angstrom}  cell{atomic_unit}
       C -3.45912e-01 -1.41110e-01  5.46967e-02
       O  8.49290e-01  2.80638e-01 -1.65213e-01
       H -4.01535e-02  7.38213e-01 -7.43092e-01
       H -4.83820e-01 -8.37186e-01  8.98187e-01
       L  5.99424e+01 -3.92938e+00 -3.85169e+00
       L  1.42167e+00  2.06041e+00 -2.62008e+00
6
# CELL(abcABC):  459.05226   459.05226   459.05226    90.00000    90.00000    90.00000  Step:          20  Bead:       0 x_centroid{angstrom}  cell{atomic_unit}
       C -3.45677e-01 -1.43602e-01  5.37837e-02
       O  8.49132e-01  2.81928e-01 -1.64159e-01
       H -3.98390e-02  7.35910e-01 -7.50477e-01
       H -4.84263e-01 -8.25412e-01  8.99621e-01
       L  5.96687e+01 -3.96906e+00 -3.83938e+00
       L  1.39024e+00  1.64177e+00 -2.44365e+00
6
# CELL(abcABC):  459.05226   459.05226   459.05226    90.00000    90.00000    90.00000  Step:          21  Bead:       0 x_centroid{angstrom}  cell{atomic_unit}
       C -3.45259e-01 -1.46681e-01  5.28911e-02
       O  8.48523e-01  2.83375e-01 -1.63190e-01
       H -3.47163e-02  7.36802e-01 -7.57237e-01
       H -4.84542e-01 -8.12387e-01  9.01521e-01
       L  5.94285e+01 -3.97811e+00 -3.78237e+00
       L  1.30918e+00  1.27182e+00 -2.29157e+00
6
# CELL(abcABC):  459.05226   459.05226   459.05226    90.00000    90.00000    90.00000  Step:          22  Bead:       0 x_centroid{angstrom}  cell{atomic_unit}
       C -3.44662e-01 -1.49813e-01  5.16281e-02
       O  8.47651e-01  2.84784e-01 -1.62147e-01
       H -2.87747e-02  7.38679e-01 -7.63512e-01
       H -4.83539e-01 -7.99134e-01  9.06157e-01
       L  5.91747e+01 -3.98617e+00 -3.70761e+00
       L  1.19539e+00  9.44299e-01 -2.13215e+00
6
# CELL(abcABC):  459.05226   459.05226   459.05226    90.00000    90.00000    90.00000  Step:          23  Bead:       0 x_centroid{angstrom}  cell{atomic_unit}
       C -3.44251e-01 -1.52726e-01  4.99397e-02
       O  8.46837e-01  2.86265e-01 -1.60947e-01
       H -2.25772e-02  7.38638e-01 -7.69337e-01
       H -4.81481e-01 -7.87729e-01  9.12884e-01
       L  5.89341e+01 -3.97955e+00 -3.55857e+00
       L  1.00300e+00  6.63613e-01 -1.95944e+00
6
# CELL(abcABC):  459.05226   459.05226   459.05226    90.00000    90.00000    90.00000  Step:          24  Bead:       0 x_centroid{angstrom}  cell{atomic_unit}
       C -3.44140e-01 -1.55541e-01  4.84768e-02
       O  8.46350e-01  2.87876e-01 -1.59856e-01
       H -1.74197e-02  7.37239e-01 -7.75851e-01
       H -4.79974e-01 -7.78193e-01  9.19314e-01
       L  5.86532e+01 -3.96662e+00 -3.36550e+00
       L  7.81514e-01  3.22603e-01 -1.78238e+00
6
# CELL(abcABC):  459.05226   459.05226   459.05226    90.00000    90.00000    90.00000  Step:          25  Bead:       0 x_centroid{angstrom}  cell{atomic_unit}
       C -3.44270e-01 -1.58060e-01  4.71438e-02
       O  8.46360e-01  2.89497e-01 -1.58794e-01
       H -1.64194e-02  7.33359e-01 -7.82596e-01
       H -4.79248e-01 -7.69868e-01  9.24868e-01
       L  5.82649e+01 -3.89385e+00 -3.17880e+00
       L  5.80388e-01 -1.50829e-03 -1.56828e+00
6
# CELL(abcABC):  459.05226   459.05226   459.05226    90.00000    90.00000    90.00000  Step:          26  Bead:       0 x_centroid{angstrom}  cell{atomic_unit}
       C -3.44850e-01 -1.60473e-01  4.57854e-02
       O  8.46988e-01  2.91156e-01 -1.57750e-01
       H -1.84992e-02  7.27310e-01 -7.88290e-01
       H -4.79881e-01 -7.61262e-01  9.29957e-01
       L  5.78298e+01 -3.83083e+00 -2.99551e+00
       L  3.72377e-01 -3.52378e-01 -1.35037e+00
6
# CELL(abcABC):  459.05226   459.05226   459.05226    90.00000    90.00000    90.00000  Step:          27  Bead:       0 x_centroid{angstrom}  cell{atomic_unit}
       C -3.45658e-01 -1.62710e-01  4.42831e-02
       O  8.47756e-01  2.92879e-01 -1.56672e-01
       H -2.09462e-02  7.19103e-01 -7.92661e-01
       H -4.79688e-01 -7.53587e-01  9.34910e-01
       L  5.74273e+01 -3.72871e+00 -2.81976e+00
       L  1.93969e-01 -7.55462e-01 -1.14933e+00
6
# CELL(abcABC):  459.05226   459.05226   459.05226    90.00000    90.00000    90.00000  Step:          28  Bead:       0 x_centroid{angstrom}  cell{atomic_unit}
       C -3.46391e-01 -1.64711e-01  4.25818e-02
       O  8.48271e-01  2.94662e-01 -1.55583e-01
       H -2.10716e-02  7.09496e-01 -7.95944e-01
       H -4.78708e-01 -7.48284e-01  9.40941e-01
       L  5.70917e+01 -3.55247e+00 -2.63886e+00
       L  1.62165e-02 -1.18039e+00 -9.10055e-01
6
# CELL(abcABC):  459.05226   459.05226   459.05226    90.00000    90.00000    90.00000  Step:          29  Bead:       0 x_centroid{angstrom}  cell{atomic_unit}
       C -3.46780e-01 -1.66743e-01  4.12334e-02
       O  8.48344e-01  2.96490e-01 -1.54770e-01
       H -1.83196e-02  7.00385e-01 -7.98796e-01
       H -4.77747e-01 -7.43883e-01  9.46743e-01
       L  5.67859e+01 -3.37704e+00 -2.44880e+00
       L -1.40710e-01 -1.53124e+00 -6.88370e-01
6
# CELL(abcABC):  459.05226   459.05226   459.05226    90.00000    90.00000    90.00000  Step:          30  Bead:       0 x_centroid{angstrom}  cell{atomic_unit}
       C -3.47110e-01 -1.68895e-01  3.99994e-02
       O  8.48164e-01  2.98429e-01 -1.54098e-01
       H -1.16116e-02  6.91233e-01 -8.01875e-01
       H -4.77391e-01 -7.39816e-01  9.53591e-01
       L  5.64364e+01 -3.13908e+00 -2.19591e+00
       L -2.73113e-01 -1.86597e+00 -4.66686e-01
6
# CELL(abcABC):  459.05226   459.05226   459.05226    90.00000    90.00000    90.00000  Step:          31  Bead:       0 x_centroid{angstrom}  cell{atomic_unit}
       C -3.47611e-01 -1.70873e-01  3.88116e-02
       O  8.47974e-01  3.00263e-01 -1.53658e-01
       H -2.31336e-03  6.82023e-01 -8.03685e-01
       H -4.77467e-01 -7.36145e-01  9.62303e-01
       L  5.61127e+01 -2.88651e+00 -1.90864e+00
       L -4.09873e-01 -2.11849e+00 -2.56754e-01
6
# CELL(abcABC):  459.05226   459.05226   459.05226    90.00000    90.00000    90.00000  Step:          32  Bead:       0 x_centroid{angstrom}  cell{atomic_unit}
       C -3.48125e-01 -1.72740e-01  3.79135e-02
       O  8.47956e-01  3.01918e-01 -1.53426e-01
       H  5.62574e-03  6.74361e-01 -8.06695e-01
       H -4.78715e-01 -7.32514e-01  9.72099e-01
       L  5.57408e+01 -2.61766e+00 -1.63341e+00
       L -5.26941e-01 -2.39654e+00 -1.10732e-01
6
# CELL(abcABC):  459.05226   459.05226   459.05226    90.00000    90.00000    90.00000  Step:          33  Bead:       0 x_centroid{angstrom}  cell{atomic_unit}
       C -3.48567e-01 -1.74629e-01  3.67011e-02
       O  8.47999e-01  3.03376e-01 -1.52946e-01
       H  1.28673e-02  6.69616e-01 -8.09213e-01
       H -4.81125e-01 -7.28395e-01  9.81208e-01
       L  5.53537e+01 -2.28746e+00 -1.33064e+00
       L -5.97983e-01 -2.70529e+00  4.01534e-02
6
# CELL(abcABC):  459.05226   459.05226   459.05226    90.00000    90.00000    90.00000  Step:          34  Bead:       0 x_centroid{angstrom}  cell{atomic_unit}
       C -3.49327e-01 -1.76587e-01  3.55129e-02
       O  8.48404e-01  3.04829e-01 -1.52384e-01
       H  1.78564e-02  6.65158e-01 -8.11923e-01
       H -4.83187e-01 -7.23689e-01  9.88898e-01
       L  5.49235e+01 -1.99581e+00 -1.06389e+00
       L -7.20008e-01 -2.99291e+00  2.25889e-01
6
# CELL(abcABC):  459.05226   459.05226   459.05226    90.00000    90.00000    90.00000  Step:          35  Bead:       0 x_centroid{angstrom}  cell{atomic_unit}
       C -3.50480e-01 -1.78619e-01  3.42447e-02
       O  8.49208e-01  3.06222e-01 -1.51523e-01
       H  2.20370e-02  6.61209e-01 -8.16503e-01
       H -4.86088e-01 -7.17670e-01  9.94653e-01
       L  5.44509e+01 -1.67192e+00 -7.53951e-01
       L -8.07195e-01 -3.26482e+00  4.38342e-01
6
# CELL(abcABC):  459.05226   459.05226   459.05226    90.00000    90.00000    90.00000  Step:          36  Bead:       0 x_centroid{angstrom}  cell{atomic_unit}
       C -3.51907e-01 -1.80959e-01  3.33252e-02
       O  8.50345e-01  3.07685e-01 -1.50581e-01
       H  2.49150e-02  6.59133e-01 -8.23270e-01
       H -4.89626e-01 -7.10974e-01  9.97137e-01
       L  5.38852e+01 -1.34468e+00 -4.22222e-01
       L -9.44050e-01 -3.50609e+00  6.21331e-01
6
# CELL(abcABC):  459.05226   459.05226   459.05226    90.00000    90.00000    90.00000  Step:          37  Bead:       0 x_centroid{angstrom}  cell{atomic_unit}
       C -3.53263e-01 -1.83512e-01  3.28435e-02
       O  8.51448e-01  3.09267e-01 -1.49778e-01
       H  2.82139e-02  6.56586e-01 -8.30040e-01
       H -4.93908e-01 -7.03182e-01  9.96648e-01
       L  5.32885e+01 -9.77727e-01 -1.05951e-01
       L -1.02121e+00 -3.73359e+00  7.57634e-01
6
# CELL(abcABC):  459.05226   459.05226   459.05226    90.00000    90.00000    90.00000  Step:          38  Bead:       0 x_centroid{angstrom}  cell{atomic_unit}
       C -3.54659e-01 -1.86400e-01  3.23766e-02
       O  8.52372e-01  3.11045e-01 -1.48779e-01
       H  3.42401e-02  6.54549e-01 -8.38711e-01
       H -4.97577e-01 -6.95017e-01  9.94790e-01
       L  5.26277e+01 -5.89843e-01  1.83025e-01
       L -1.08292e+00 -4.01709e+00  9.17244e-01
6
# CELL(abcABC):  459.05226   459.05226   459.05226    90.00000    90.00000    90.00000  Step:          39  Bead:       0 x_centroid{angstrom}  cell{atomic_unit}
       C -3.56103e-01 -1.89119e-01  3.21715e-02
       O  8.53082e-01  3.12635e-01 -1.47898e-01
       H  4.39337e-02  6.52975e-01 -8.47273e-01
       H -5.00948e-01 -6.86346e-01  9.91571e-01
       L  5.20037e+01 -1.84188e-01  4.91248e-01
       L -1.14815e+00 -4.31805e+00  1.04323e+00
6
# CELL(abcABC):  459.05226   459.05226   459.05226    90.00000    90.00000    90.00000  Step:          40  Bead:       0 x_centroid{angstrom}  cell{atomic_unit}
       C -3.57667e-01 -1.91723e-01  3.19812e-02
       O  8.53656e-01  3.14024e-01 -1.47087e-01
       H  5.72157e-02  6.53513e-01 -8.55493e-01
       H -5.04349e-01 -6.77960e-01  9.88936e-01
       L  5.13791e+01  2.52883e-01  8.29768e-01
       L -1.18404e+00 -4.65555e+00  1.15453e+00
6
# CELL(abcABC):  459.05226   459.05226   459.05226    90.00000    90.00000    90.00000  Step:          41  Bead:       0 x_centroid{angstrom}  cell{atomic_unit}
       C -3.59276e-01 -1.94507e-01  3.20581e-02
       O  8.54015e-01  3.15649e-01 -1.46473e-01
       H  7.33062e-02  6.53984e-01 -8.63836e-01
       H -5.06617e-01 -6.71070e-01  9.86380e-01
       L  5.07130e+01  6.62014e-01  1.16552e+00
       L -1.16495e+00 -5.01456e+00  1.27489e+00
6
# CELL(abcABC):  459.05226   459.05226   459.05226    90.00000    90.00000    90.00000  Step:          42  Bead:       0 x_centroid{angstrom}  cell{atomic_unit}
       C -3.61409e-01 -1.97101e-01  3.20258e-02
       O  8.54661e-01  3.17317e-01 -1.45907e-01
       H  9.09878e-02  6.51854e-01 -8.70671e-01
       H -5.08792e-01 -6.64494e-01  9.84395e-01
       L  5.00209e+01  1.01022e+00  1.45819e+00
       L -1.11032e+00 -5.36886e+00  1.38588e+00
6
# CELL(abcABC):  459.05226   459.05226   459.05226    90.00000    90.00000    90.00000  Step:          43  Bead:       0 x_centroid{angstrom}  cell{atomic_unit}
       C -3.63932e-01 -1.99750e-01  3.19533e-02
       O  8.55492e-01  3.19170e-01 -1.45326e-01
       H  1.10180e-01  6.48914e-01 -8.77445e-01
       H -5.10672e-01 -6.59443e-01  9.82611e-01
       L  4.92451e+01  1.39476e+00  1.75388e+00
       L -1.11686e+00 -5.69630e+00  1.44955e+00
6
# CELL(abcABC):  459.05226   459.05226   459.05226    90.00000    90.00000    90.00000  Step:          44  Bead:       0 x_centroid{angstrom}  cell{atomic_unit}
       C -3.66981e-01 -2.02393e-01  3.17895e-02
       O  8.56862e-01  3.21056e-01 -1.44843e-01
       H  1.28041e-01  6.45653e-01 -8.83709e-01
       H -5.13484e-01 -6.54614e-01  9.82908e-01
       L  4.83653e+01  1.69091e+00  2.11098e+00
       L -1.10528e+00 -6.02062e+00  1.54984e+00
6
# CELL(abcABC):  459.05226   459.05226   459.05226    90.00000    90.00000    90.00000  Step:          45  Bead:       0 x_centroid{angstrom}  cell{atomic_unit}
       C -3.70413e-01 -2.05218e-01  3.13784e-02
       O  8.58480e-01  3.23101e-01 -1.44333e-01
       H  1.46947e-01  6.42272e-01 -8.88227e-01
       H -5.16625e-01 -6.49975e-01  9.83976e-01
       L  4.73922e+01  1.94884e+00  2.45261e+00
       L -1.12297e+00 -6.35317e+00  1.67756e+00
6
# CELL(abcABC):  459.05226   459.05226   459.05226    90.00000    90.00000    90.00000  Step:          46  Bead:       0 x_centroid{angstrom}  cell{atomic_unit}
       C -3.74524e-01 -2.07901e-01  3.08399e-02
       O  8.60600e-01  3.25061e-01 -1.44043e-01
       H  1.66297e-01  6.39150e-01 -8.90283e-01
       H -5.20090e-01 -6.45950e-01  9.87620e-01
       L  4.63104e+01  2.14542e+00  2.74104e+00
       L -1.08209e+00 -6.66708e+00  1.81071e+00
6
# CELL(abcABC):  459.05226   459.05226   459.05226    90.00000    90.00000    90.00000  Step:          47  Bead:       0 x_centroid{angstrom}  cell{atomic_unit}
       C -3.79300e-01 -2.10548e-01  3.02318e-02
       O  8.63149e-01  3.27047e-01 -1.43998e-01
       H  1.87583e-01  6.35445e-01 -8.90582e-01
       H -5.24323e-01 -6.42173e-01  9.94255e-01
       L  4.51211e+01  2.36743e+00  2.97511e+00
       L -9.89745e-01 -6.98488e+00  1.94206e+00
6
# CELL(abcABC):  459.05226   459.05226   459.05226    90.00000    90.00000    90.00000  Step:          48  Bead:       0 x_centroid{angstrom}  cell{atomic_unit}
       C -3.84411e-01 -2.13510e-01  2.92775e-02
       O  8.65840e-01  3.29177e-01 -1.43941e-01
       H  2.10523e-01  6.33336e-01 -8.88776e-01
       H -5.28410e-01 -6.38536e-01  1.00278e+00
       L  4.38303e+01  2.58524e+00  3.14742e+00
       L -9.23128e-01 -7.25797e+00  2.00960e+00
6
# CELL(abcABC):  459.05226   459.05226   459.05226    90.00000    90.00000    90.00000  Step:          49  Bead:       0 x_centroid{angstrom}  cell{atomic_unit}
       C -3.89917e-01 -2.16590e-01  2.85500e-02
       O  8.68738e-01  3.31135e-01 -1.44184e-01
       H  2.35205e-01  6.35106e-01 -8.87800e-01
       H -5.32785e-01 -6.34724e-01  1.01419e+00
       L  4.24606e+01  2.85707e+00  3.30547e+00
       L -8.47042e-01 -7.46271e+00  2.09749e+00
6
# CELL(abcABC):  459.05226   459.05226   459.05226    90.00000    90.00000    90.00000  Step:          50  Bead:       0 x_centroid{angstrom}  cell{atomic_unit}
       C -3.95479e-01 -2.20350e-01  2.82149e-02
       O  8.71472e-01  3.33323e-01 -1.44709e-01
       H  2.62140e-01  6.40172e-01 -8.87407e-01
       H -5.36087e-01 -6.29757e-01  1.02602e+00
       L  4.10245e+01  3.14105e+00  3.43553e+00
       L -7.68827e-01 -7.68697e+00  2.15844e+00
6
# CELL(abcABC):  459.05226   459.05226   459.05226    90.00000    90.00000    90.00000  Step:          51  Bead:       0 x_centroid{angstrom}  cell{atomic_unit}
       C -4.01422e-01 -2.24558e-01  2.81372e-02
       O  8.74169e-01  3.35652e-01 -1.45322e-01
       H  2.93302e-01  6.46824e-01 -8.88556e-01
       H -5.38436e-01 -6.23258e-01  1.03771e+00
       L  3.94905e+01  3.38864e+00  3.61597e+00
       L -7.32970e-01 -7.86983e+00  2.20344e+00
6
# CELL(abcABC):  459.05226   459.05226   459.05226    90.00000    90.00000    90.00000  Step:          52  Bead:       0 x_centroid{angstrom}  cell{atomic_unit}
       C -4.07788e-01 -2.28870e-01  2.85933e-02
       O  8.76721e-01  3.38003e-01 -1.46186e-01
       H  3.29972e-01  6.54949e-01 -8.92290e-01
       H -5.38902e-01 -6.17360e-01  1.04961e+00
       L  3.78595e+01  3.61966e+00  3.80425e+00
       L -6.86976e-01 -8.04293e+00  2.21243e+00
6
# CELL(abcABC):  459.05226   459.05226   459.05226    90.00000    90.00000    90.00000  Step:          53  Bead:       0 x_centroid{angstrom}  cell{atomic_unit}
       C -4.14577e-01 -2.33235e-01  2.95569e-02
       O  8.79229e-01  3.40166e-01 -1.47157e-01
       H  3.71304e-01  6.66819e-01 -8.98720e-01
       H -5.38278e-01 -6.11553e-01  1.05991e+00
       L  3.61590e+01  3.76490e+00  3.99728e+00
       L -5.69415e-01 -8.17048e+00  2.12923e+00
6
# CELL(abcABC):  459.05226   459.05226   459.05226    90.00000    90.00000    90.00000  Step:          54  Bead:       0 x_centroid{angstrom}  cell{atomic_unit}
       C -4.21296e-01 -2.37758e-01  3.07963e-02
       O  8.81378e-01  3.42248e-01 -1.48133e-01
       H  4.16131e-01  6.81155e-01 -9.08227e-01
       H -5.36218e-01 -6.05035e-01  1.07011e+00
       L  3.43859e+01  3.86832e+00  4.18451e+00
       L -5.19474e-01 -8.27676e+00  2.00519e+00
6
# CELL(abcABC):  459.05226   459.05226   459.05226    90.00000    90.00000    90.00000  Step:          55  Bead:       0 x_centroid{angstrom}  cell{atomic_unit}
       C -4.28183e-01 -2.42292e-01  3.23071e-02
       O  8.83417e-01  3.44196e-01 -1.49107e-01
       H  4.63685e-01  6.96690e-01 -9.20061e-01
       H -5.33130e-01 -5.97440e-01  1.07943e+00
       L  3.26095e+01  3.93702e+00  4.28455e+00
       L -4.59226e-01 -8.40946e+00  1.85466e+00
6
# CELL(abcABC):  459.05226   459.05226   459.05226    90.00000    90.00000    90.00000  Step:          56  Bead:       0 x_centroid{angstrom}  cell{atomic_unit}
       C -4.35065e-01 -2.46994e-01  3.41824e-02
       O  8.85134e-01  3.46132e-01 -1.50047e-01
       H  5.13730e-01  7.13703e-01 -9.33810e-01
       H -5.27467e-01 -5.89040e-01  1.08578e+00
       L  3.07698e+01  3.94445e+00  4.39962e+00
       L -3.74663e-01 -8.61266e+00  1.69851e+00
6
# CELL(abcABC):  459.05226   459.05226   459.05226    90.00000    90.00000    90.00000  Step:          57  Bead:       0 x_centroid{angstrom}  cell{atomic_unit}
       C -4.42231e-01 -2.52097e-01  3.63545e-02
       O  8.86966e-01  3.48453e-01 -1.50977e-01
       H  5.64813e-01  7.29787e-01 -9.48166e-01
       H -5.21261e-01 -5.80984e-01  1.08905e+00
       L  2.89316e+01  3.90473e+00  4.52534e+00
       L -3.31700e-01 -8.90591e+00  1.51534e+00
6
# CELL(abcABC):  459.05226   459.05226   459.05226    90.00000    90.00000    90.00000  Step:          58  Bead:       0 x_centroid{angstrom}  cell{atomic_unit}
       C -4.49371e-01 -2.57047e-01  3.88760e-02
       O  8.88785e-01  3.50745e-01 -1.51848e-01
       H  6.15261e-01  7.44294e-01 -9.64785e-01
       H -5.14518e-01 -5.72646e-01  1.08951e+00
       L  2.70666e+01  3.77783e+00  4.56031e+00
       L -2.77980e-01 -9.21896e+00  1.35824e+00
6
# CELL(abcABC):  459.05226   459.05226   459.05226    90.00000    90.00000    90.00000  Step:          59  Bead:       0 x_centroid{angstrom}  cell{atomic_unit}
       C -4.56901e-01 -2.61868e-01  4.17872e-02
       O  8.90932e-01  3.53211e-01 -1.52871e-01
       H  6.65378e-01  7.55062e-01 -9.81200e-01
       H -5.07990e-01 -5.64817e-01  1.08756e+00
       L  2.51584e+01  3.57004e+00  4.55343e+00
       L -2.26453e-01 -9.56769e+00  1.20848e+00
6
# CELL(abcABC):  459.05226   459.05226   459.05226    90.00000    90.00000    90.00000  Step:          60  Bead:       0 x_centroid{angstrom}  cell{atomic_unit}
       C -4.64015e-01 -2.66404e-01  4.45988e-02
       O  8.92820e-01  3.55766e-01 -1.53863e-01
       H  7.13417e-01  7.62770e-01 -9.96878e-01
       H -5.00192e-01 -5.58662e-01  1.08559e+00
       L  2.32178e+01  3.35891e+00  4.47672e+00
       L -1.69747e-01 -9.99958e+00  1.07620e+00
6
# CELL(abcABC):  459.05226   459.05226   459.05226    90.00000    90.00000    90.00000  Step:          61  Bead:       0 x_centroid{angstrom}  cell{atomic_unit}
       C -4.70963e-01 -2.70723e-01  4.75870e-02
       O  8.94563e-01  3.58444e-01 -1.55019e-01
       H  7.60126e-01  7.67232e-01 -1.01177e+00
       H -4.90733e-01 -5.53751e-01  1.08340e+00
       L  2.12137e+01  3.08113e+00  4.29137e+00
       L -6.70562e-02 -1.05029e+01  9.50402e-01
6
# CELL(abcABC):  459.05226   459.05226   459.05226    90.00000    90.00000    90.00000  Step:          62  Bead:       0 x_centroid{angstrom}  cell{atomic_unit}
       C -4.77628e-01 -2.74775e-01  5.04821e-02
       O  8.96131e-01  3.61168e-01 -1.56189e-01
       H  8.05236e-01  7.70219e-01 -1.02606e+00
       H -4.80216e-01 -5.51237e-01  1.08191e+00
       L  1.91326e+01  2.80440e+00  4.12197e+00
       L -1.56543e-02 -1.10623e+01  8.58796e-01
6
# CELL(abcABC):  459.05226   459.05226   459.05226    90.00000    90.00000    90.00000  Step:          63  Bead:       0 x_centroid{angstrom}  cell{atomic_unit}
       C -4.84156e-01 -2.78614e-01  5.32437e-02
       O  8.97618e-01  3.63988e-01 -1.57504e-01
       H  8.49830e-01  7.70733e-01 -1.03789e+00
       H -4.69470e-01 -5.50267e-01  1.08185e+00
       L  1.69816e+01  2.51306e+00  3.89927e+00
       L  3.80244e-02 -1.16912e+01  7.85441e-01
6
# CELL(abcABC):  459.05226   459.05226   459.05226    90.00000    90.00000    90.00000  Step:          64  Bead:       0 x_centroid{angstrom}  cell{atomic_unit}
       C -4.90108e-01 -2.82144e-01  5.58745e-02
       O  8.98777e-01  3.66826e-01 -1.58917e-01
       H  8.91475e-01  7.67786e-01 -1.04755e+00
       H -4.57453e-01 -5.49799e-01  1.08281e+00
       L  1.48204e+01  2.23251e+00  3.61452e+00
       L  8.87806e-02 -1.23450e+01  6.78915e-01
6
# CELL(abcABC):  459.05226   459.05226   459.05226    90.00000    90.00000    90.00000  Step:          65  Bead:       0 x_centroid{angstrom}  cell{atomic_unit}
       C -4.95559e-01 -2.85121e-01  5.76159e-02
       O  8.99646e-01  3.69564e-01 -1.60051e-01
       H  9.31135e-01  7.61143e-01 -1.05456e+00
       H -4.44817e-01 -5.50658e-01  1.08731e+00
       L  1.26554e+01  1.96867e+00  3.24406e+00
       L  1.81963e-01 -1.29767e+01  6.02872e-01
6
# CELL(abcABC):  459.05226   459.05226   459.05226    90.00000    90.00000    90.00000  Step:          66  Bead:       0 x_centroid{angstrom}  cell{atomic_unit}
       C -5.00179e-01 -2.87616e-01  5.83369e-02