6
# CELL(abcABC):  459.05226   459.05226   459.05226    90.00000    90.00000    90.00000  Step:           0  Bead:       0 x_centroid{angstrom}  cell{atomic_unit}
       C -3.39887e-01 -1.13437e-01  8.06659e-02
       O  8.43483e-01  2.62672e-01 -1.81512e-01
       H -7.35799e-02  8.16467e-01 -6.61432e-01
       H -4.30016e-01 -9.65701e-01  7.62278e-01
       L  6.13458e+01  0.00000e+00  0.00000e+00
       L  0.00000e+00  8.59064e+00  0.00000e+00
6
# CELL(abcABC):  459.05226   459.05226   459.05226    90.00000    90.00000    90.00000  Step:           1  Bead:       0 x_centroid{angstrom}  cell{atomic_unit}
       C -3.38140e-01 -1.15115e-01  8.06762e-02
       O  8.42186e-01  2.64765e-01 -1.81957e-01
       H -7.72444e-02  8.13102e-01 -6.51985e-01
       H -4.25896e-01 -9.75583e-01  7.59743e-01
       L  6.05019e+01 -1.27063e-01  3.27349e-01
       L -4.00981e-01  8.74561e+00 -2.96507e-01
6
# CELL(abcABC):  459.05226   459.05226   459.05226    90.00000    90.00000    90.00000  Step:           2  Bead:       0 x_centroid{angstrom}  cell{atomic_unit}
       C -3.36515e-01 -1.16797e-01  8.08940e-02
       O  8.40916e-01  2.66854e-01 -1.82590e-01
       H -8.01476e-02  8.09547e-01 -6.42983e-01
       H -4.21480e-01 -9.85121e-01  7.58221e-01
       L  5.96055e+01 -2.57490e-01  6.25146e-01
       L -8.30570e-01  8.82620e+00 -6.39254e-01
6
# CELL(abcABC):  459.05226   459.05226   459.05226    90.00000    90.00000    90.00000  Step:           3  Bead:       0 x_centroid{angstrom}  cell{atomic_unit}
       C -3.34953e-01 -1.18545e-01  8.12131e-02
       O  8.39581e-01  2.68873e-01 -1.83264e-01
       H -8.05496e-02  8.07435e-01 -6.34438e-01
       H -4.17730e-01 -9.94125e-01  7.56610e-01
       L  5.87057e+01 -4.52407e-01  8.55868e-01
       L -1.33454e+00  8.83825e+00 -9.41082e-01
6
# CELL(abcABC):  459.05226   459.05226   459.05226    90.00000    90.00000    90.00000  Step:           4  Bead:       0 x_centroid{angstrom}  cell{atomic_unit}
       C -3.33282e-01 -1.20367e-01  8.17814e-02
       O  8.38159e-01  2.70729e-01 -1.84074e-01
       H -8.14547e-02  8.07640e-01 -6.26845e-01
       H -4.13416e-01 -1.00199e+00  7.55147e-01
       L  5.78026e+01 -6.25876e-01  1.10971e+00
       L -1.83650e+00  8.82599e+00 -1.27934e+00
6
# CELL(abcABC):  459.05226   459.05226   459.05226    90.00000    90.00000    90.00000  Step:           5  Bead:       0 x_centroid{angstrom}  cell{atomic_unit}
       C -3.31743e-01 -1.22456e-01  8.26596e-02
       O  8.36607e-01  2.72544e-01 -1.84980e-01
       H -7.98890e-02  8.10343e-01 -6.20856e-01
       H -4.07893e-01 -1.00850e+00  7.53088e-01
       L  5.69054e+01 -8.07783e-01  1.40834e+00
       L -2.36049e+00  8.82009e+00 -1.58768e+00
6
# CELL(abcABC):  459.05226   459.05226   459.05226    90.00000    90.00000    90.00000  Step:           6  Bead:       0 x_centroid{angstrom}  cell{atomic_unit}
       C -3.30227e-01 -1.24584e-01  8.36336e-02
       O  8.35079e-01  2.74194e-01 -1.85814e-01
       H -7.89250e-02  8.14958e-01 -6.16944e-01
       H -4.01951e-01 -1.01388e+00  7.50800e-01
       L  5.60118e+01 -9.05986e-01  1.68497e+00
       L -2.78702e+00  8.80647e+00 -1.85843e+00
6
# CELL(abcABC):  459.05226   459.05226   459.05226    90.00000    90.00000    90.00000  Step:           7  Bead:       0 x_centroid{angstrom}  cell{atomic_unit}
       C -3.29183e-01 -1.26902e-01  8.49365e-02
       O  8.34072e-01  2.75780e-01 -1.86636e-01
       H -8.07568e-02  8.21381e-01 -6.14899e-01
       H -3.95896e-01 -1.01779e+00  7.46266e-01
       L  5.51099e+01 -9.91648e-01  1.96022e+00
       L -3.16703e+00  8.75928e+00 -2.12201e+00
6
# CELL(abcABC):  459.05226   459.05226   459.05226    90.00000    90.00000    90.00000  Step:           8  Bead:       0 x_centroid{angstrom}  cell{atomic_unit}
       C -3.28471e-01 -1.29267e-01  8.64038e-02
       O  8.33347e-01  2.77372e-01 -1.87513e-01
       H -8.29433e-02  8.27204e-01 -6.12699e-01
       H -3.90011e-01 -1.02063e+00  7.40551e-01
       L  5.41969e+01 -1.06213e+00  2.18051e+00
       L -3.46636e+00  8.70267e+00 -2.41951e+00
6
# CELL(abcABC):  459.05226   459.05226   459.05226    90.00000    90.00000    90.00000  Step:           9  Bead:       0 x_centroid{angstrom}  cell{atomic_unit}
       C -3.28008e-01 -1.31639e-01  8.79018e-02
       O  8.32823e-01  2.78878e-01 -1.88306e-01
       H -8.47335e-02  8.34459e-01 -6.11681e-01
       H -3.84787e-01 -1.02344e+00  7.34306e-01
       L  5.32660e+01 -1.11958e+00  2.35976e+00
       L -3.71382e+00  8.59487e+00 -2.66274e+00
6
# CELL(abcABC):  459.05226   459.05226   459.05226    90.00000    90.00000    90.00000  Step:          10  Bead:       0 x_centroid{angstrom}  cell{atomic_unit}
       C -3.27593e-01 -1.34210e-01  8.96618e-02
       O  8.32229e-01  2.80445e-01 -1.89251e-01
       H -8.64917e-02  8.42181e-01 -6.09782e-01
       H -3.77924e-01 -1.02533e+00  7.26476e-01
       L  5.23507e+01 -1.11001e+00  2.51212e+00
       L -3.92535e+00  8.45434e+00 -2.88331e+00
6
# CELL(abcABC):  459.05226   459.05226   459.05226    90.00000    90.00000    90.00000  Step:          11  Bead:       0 x_centroid{angstrom}  cell{atomic_unit}
       C -3.27688e-01 -1.36964e-01  9.12903e-02
       O  8.31929e-01  2.82122e-01 -1.90189e-01
       H -8.75977e-02  8.49918e-01 -6.07538e-01
       H -3.70381e-01 -1.02674e+00  7.19761e-01
       L  5.14991e+01 -1.16225e+00  2.63670e+00
       L -4.09247e+00  8.27173e+00 -3.11411e+00
6
# CELL(abcABC):  459.05226   459.05226   459.05226    90.00000    90.00000    90.00000  Step:          12  Bead:       0 x_centroid{angstrom}  cell{atomic_unit}
       C -3.27905e-01 -1.39698e-01  9.30867e-02
       O  8.31459e-01  2.83913e-01 -1.91172e-01
       H -8.51918e-02  8.55699e-01 -6.06611e-01
       H -3.62186e-01 -1.02825e+00  7.13018e-01
       L  5.06454e+01 -1.19510e+00  2.80603e+00
       L -4.23480e+00  8.09245e+00 -3.24799e+00
6
# CELL(abcABC):  459.05226   459.05226   459.05226    90.00000    90.00000    90.00000  Step:          13  Bead:       0 x_centroid{angstrom}  cell{atomic_unit}
       C -3.28212e-01 -1.42474e-01  9.53400e-02
       O  8.30947e-01  2.85825e-01 -1.92534e-01
       H -8.03496e-02  8.60683e-01 -6.04365e-01
       H -3.54709e-01 -1.03040e+00  7.05524e-01
       L  4.97795e+01 -1.19994e+00  2.94918e+00
       L -4.34871e+00  7.90317e+00 -3.34464e+00
6
# CELL(abcABC):  459.05226   459.05226   459.05226    90.00000    90.00000    90.00000  Step:          14  Bead:       0 x_centroid{angstrom}  cell{atomic_unit}
       C -3.28876e-01 -1.44965e-01  9.75762e-02
       O  8.30673e-01  2.87747e-01 -1.94002e-01
       H -7.44448e-02  8.63166e-01 -6.00477e-01
       H -3.47857e-01 -1.03361e+00  6.98229e-01
       L  4.88904e+01 -1.21482e+00  3.05068e+00
       L -4.38393e+00  7.71844e+00 -3.35577e+00
6
# CELL(abcABC):  459.05226   459.05226   459.05226    90.00000    90.00000    90.00000  Step:          15  Bead:       0 x_centroid{angstrom}  cell{atomic_unit}
       C -3.30283e-01 -1.47474e-01  9.94755e-02
       O  8.30964e-01  2.89866e-01 -1.95286e-01
       H -6.80634e-02  8.64332e-01 -5.96532e-01
       H -3.41630e-01 -1.03843e+00  6.91962e-01
       L  4.79929e+01 -1.21557e+00  3.17034e+00
       L -4.33612e+00  7.57452e+00 -3.34337e+00
6
# CELL(abcABC):  459.05226   459.05226   459.05226    90.00000    90.00000    90.00000  Step:          16  Bead:       0 x_centroid{angstrom}  cell{atomic_unit}
       C -3.31785e-01 -1.50269e-01  1.01494e-01
       O  8.31503e-01  2.92315e-01 -1.96810e-01
       H -6.31939e-02  8.64725e-01 -5.90616e-01
       H -3.36717e-01 -1.04426e+00  6.86131e-01
       L  4.71059e+01 -1.28544e+00  3.27668e+00
       L -4.22903e+00  7.37859e+00 -3.32971e+00
6
# CELL(abcABC):  459.05226   459.05226   459.05226    90.00000    90.00000    90.00000  Step:          17  Bead:       0 x_centroid{angstrom}  cell{atomic_unit}
       C -3.33816e-01 -1.53296e-01  1.03440e-01
       O  8.32391e-01  2.95069e-01 -1.98398e-01
       H -5.76171e-02  8.64902e-01 -5.84169e-01
       H -3.31780e-01 -1.05192e+00  6.81658e-01
       L  4.62120e+01 -1.31503e+00  3.32807e+00
       L -4.09971e+00  7.13498e+00 -3.31914e+00
6
# CELL(abcABC):  459.05226   459.05226   459.05226    90.00000    90.00000    90.00000  Step:          18  Bead:       0 x_centroid{angstrom}  cell{atomic_unit}
       C -3.35849e-01 -1.56234e-01  1.05291e-01
       O  8.33299e-01  2.97885e-01 -2.00020e-01
       H -5.09816e-02  8.65263e-01 -5.76809e-01
       H -3.28190e-01 -1.06178e+00  6.77983e-01
       L  4.52916e+01 -1.36790e+00  3.32812e+00
       L -3.95208e+00  6.83679e+00 -3.29650e+00
6
# CELL(abcABC):  459.05226   459.05226   459.05226    90.00000    90.00000    90.00000  Step:          19  Bead:       0 x_centroid{angstrom}  cell{atomic_unit}
       C -3.37849e-01 -1.59389e-01  1.07065e-01
       O  8.34148e-01  3.00769e-01 -2.01674e-01
       H -4.43675e-02  8.67856e-01 -5.70145e-01
       H -3.24056e-01 -1.07235e+00  6.76447e-01
       L  4.43543e+01 -1.41550e+00  3.26100e+00
       L -3.72855e+00  6.52047e+00 -3.24462e+00
6
# CELL(abcABC):  459.05226   459.05226   459.05226    90.00000    90.00000    90.00000  Step:          20  Bead:       0 x_centroid{angstrom}  cell{atomic_unit}
       C -3.39988e-01 -1.63096e-01  1.08914e-01
       O  8.35085e-01  3.03930e-01 -2.03330e-01
       H -3.62571e-02  8.73726e-01 -5.65395e-01
       H -3.21189e-01 -1.08406e+00  6.76028e-01
       L  4.34057e+01 -1.42682e+00  3.07889e+00
       L -3.43339e+00  6.19980e+00 -3.21736e+00
6
# CELL(abcABC):  459.05226   459.05226   459.05226    90.00000    90.00000    90.00000  Step:          21  Bead:       0 x_centroid{angstrom}  cell{atomic_unit}
       C -3.42246e-01 -1.66564e-01  1.10751e-01
       O  8.36080e-01  3.06867e-01 -2.04996e-01
       H -2.76837e-02  8.81200e-01 -5.61489e-01
       H -3.18314e-01 -1.09666e+00  6.76747e-01
       L  4.24452e+01 -1.44166e+00  2.89158e+00
       L -3.08566e+00  5.90420e+00 -3.15300e+00
6
# CELL(abcABC):  459.05226   459.05226   459.05226    90.00000    90.00000    90.00000  Step:          22  Bead:       0 x_centroid{angstrom}  cell{atomic_unit}
       C -3.45050e-01 -1.70436e-01  1.12648e-01
       O  8.37499e-01  3.09949e-01 -2.06784e-01
       H -1.87077e-02  8.90669e-01 -5.58036e-01
       H -3.16112e-01 -1.10876e+00  6.79173e-01
       L  4.14635e+01 -1.40095e+00  2.66297e+00
       L -2.67103e+00  5.59246e+00 -3.11492e+00
6
# CELL(abcABC):  459.05226   459.05226   459.05226    90.00000    90.00000    90.00000  Step:          23  Bead:       0 x_centroid{angstrom}  cell{atomic_unit}
       C -3.48283e-01 -1.74757e-01  1.14994e-01
       O  8.39199e-01  3.13255e-01 -2.08855e-01
       H -9.44882e-03  9.00663e-01 -5.54738e-01
       H -3.13494e-01 -1.11960e+00  6.80919e-01
       L  4.04052e+01 -1.35698e+00  2.45415e+00
       L -2.22602e+00  5.28761e+00 -3.13427e+00
6
# CELL(abcABC):  459.05226   459.05226   459.05226    90.00000    90.00000    90.00000  Step:          24  Bead:       0 x_centroid{angstrom}  cell{atomic_unit}
       C -3.52049e-01 -1.79377e-01  1.17489e-01
       O  8.41294e-01  3.16772e-01 -2.11005e-01
       H  1.44236e-03  9.09628e-01 -5.50896e-01
       H -3.12396e-01 -1.12927e+00  6.81645e-01
       L  3.93380e+01 -1.23155e+00  2.16017e+00
       L -1.80065e+00  5.01825e+00 -3.15727e+00
6
# CELL(abcABC):  459.05226   459.05226   459.05226    90.00000    90.00000    90.00000  Step:          25  Bead:       0 x_centroid{angstrom}  cell{atomic_unit}
       C -3.56005e-01 -1.83894e-01  1.20079e-01
       O  8.43480e-01  3.20225e-01 -2.13180e-01
       H  1.40236e-02  9.18667e-01 -5.46773e-01
       H -3.12208e-01 -1.13918e+00  6.81368e-01
       L  3.82419e+01 -1.13079e+00  1.84671e+00
       L -1.32721e+00  4.72059e+00 -3.18498e+00
6
# CELL(abcABC):  459.05226   459.05226   459.05226    90.00000    90.00000    90.00000  Step:          26  Bead:       0 x_centroid{angstrom}  cell{atomic_unit}
       C -3.60154e-01 -1.88673e-01  1.22914e-01
       O  8.45646e-01  3.23752e-01 -2.15482e-01
       H  2.86977e-02  9.28136e-01 -5.43149e-01
       H -3.11520e-01 -1.14761e+00  6.80693e-01
       L  3.71568e+01 -9.99042e-01  1.51913e+00
       L -8.00407e-01  4.46135e+00 -3.20314e+00
6
# CELL(abcABC):  459.05226   459.05226   459.05226    90.00000    90.00000    90.00000  Step:          27  Bead:       0 x_centroid{angstrom}  cell{atomic_unit}
       C -3.64273e-01 -1.93557e-01  1.25856e-01
       O  8.47612e-01  3.27267e-01 -2.17698e-01
       H  4.68669e-02  9.37713e-01 -5.39653e-01
       H -3.11481e-01 -1.15474e+00  6.77459e-01
       L  3.60474e+01 -8.92240e-01  1.13912e+00
       L -2.91967e-01  4.25197e+00 -3.09702e+00
6
# CELL(abcABC):  459.05226   459.05226   459.05226    90.00000    90.00000    90.00000  Step:          28  Bead:       0 x_centroid{angstrom}  cell{atomic_unit}
       C -3.68623e-01 -1.98578e-01  1.28518e-01
       O  8.49296e-01  3.30783e-01 -2.19652e-01
       H  7.07850e-02  9.48241e-01 -5.36768e-01
       H -3.09966e-01 -1.16119e+00  6.74054e-01
       L  3.49365e+01 -7.81814e-01  7.27316e-01
       L  1.98868e-01  4.05395e+00 -3.02558e+00
6
# CELL(abcABC):  459.05226   459.05226   459.05226    90.00000    90.00000    90.00000  Step:          29  Bead:       0 x_centroid{angstrom}  cell{atomic_unit}
       C -3.72925e-01 -2.03752e-01  1.31238e-01
       O  8.50562e-01  3.34197e-01 -2.21563e-01
       H  1.00003e-01  9.59989e-01 -5.34094e-01
       H -3.07635e-01 -1.16545e+00  6.69443e-01
       L  3.37529e+01 -6.66346e-01  3.13250e-01
       L  6.95968e-01  3.89412e+00 -2.88131e+00
6
# CELL(abcABC):  459.05226   459.05226   459.05226    90.00000    90.00000    90.00000  Step:          30  Bead:       0 x_centroid{angstrom}  cell{atomic_unit}
       C -3.77138e-01 -2.09131e-01  1.33770e-01
       O  8.51482e-01  3.37765e-01 -2.23325e-01
       H  1.33444e-01  9.72402e-01 -5.32272e-01
       H -3.05079e-01 -1.17039e+00  6.65521e-01
       L  3.25019e+01 -5.57361e-01 -7.35733e-02
       L  1.19542e+00  3.77257e+00 -2.67677e+00
6
# CELL(abcABC):  459.05226   459.05226   459.05226    90.00000    90.00000    90.00000  Step:          31  Bead:       0 x_centroid{angstrom}  cell{atomic_unit}
       C -3.81823e-01 -2.14794e-01  1.36460e-01
       O  8.52412e-01  3.41455e-01 -2.25102e-01
       H  1.71317e-01  9.86665e-01 -5.31832e-01
       H -3.01446e-01 -1.17575e+00  6.61358e-01
       L  3.12072e+01 -4.63948e-01 -4.62327e-01
       L  1.69699e+00  3.68560e+00 -2.49294e+00
6
# CELL(abcABC):  459.05226   459.05226   459.05226    90.00000    90.00000    90.00000  Step:          32  Bead:       0 x_centroid{angstrom}  cell{atomic_unit}
       C -3.87035e-01 -2.20540e-01  1.39250e-01
       O  8.53391e-01  3.45160e-01 -2.26875e-01
       H  2.12349e-01  1.00306e+00 -5.33743e-01
       H -2.95471e-01 -1.18253e+00  6.58247e-01
       L  2.98919e+01 -3.86681e-01 -8.08237e-01
       L  2.19139e+00  3.66748e+00 -2.30067e+00
6
# CELL(abcABC):  459.05226   459.05226   459.05226    90.00000    90.00000    90.00000  Step:          33  Bead:       0 x_centroid{angstrom}  cell{atomic_unit}
       C -3.92707e-01 -2.26359e-01  1.42173e-01
       O  8.54538e-01  3.48699e-01 -2.28653e-01
       H  2.54903e-01  1.02264e+00 -5.37660e-01
       H -2.88108e-01 -1.18898e+00  6.55626e-01
       L  2.84629e+01 -3.17887e-01 -1.14673e+00
       L  2.63934e+00  3.68626e+00 -2.10342e+00
6
# CELL(abcABC):  459.05226   459.05226   459.05226    90.00000    90.00000    90.00000  Step:          34  Bead:       0 x_centroid{angstrom}  cell{atomic_unit}
       C -3.99085e-01 -2.32494e-01  1.45288e-01
       O  8.56047e-01  3.52385e-01 -2.30434e-01
       H  2.98702e-01  1.04458e+00 -5.43983e-01
       H -2.79216e-01 -1.19642e+00  6.53127e-01
       L  2.69086e+01 -2.00837e-01 -1.42946e+00
       L  3.02559e+00  3.72160e+00 -1.86325e+00
6
# CELL(abcABC):  459.05226   459.05226   459.05226    90.00000    90.00000    90.00000  Step:          35  Bead:       0 x_centroid{angstrom}  cell{atomic_unit}
       C -4.05625e-01 -2.38903e-01  1.48357e-01
       O  8.57715e-01  3.56050e-01 -2.32044e-01
       H  3.42113e-01  1.06955e+00 -5.51028e-01
       H -2.70469e-01 -1.20331e+00  6.49104e-01
       L  2.52361e+01 -5.57445e-02 -1.65822e+00
       L  3.39162e+00  3.79816e+00 -1.53618e+00
6
# CELL(abcABC):  459.05226   459.05226   459.05226    90.00000    90.00000    90.00000  Step:          36  Bead:       0 x_centroid{angstrom}  cell{atomic_unit}
       C -4.12583e-01 -2.45520e-01  1.51800e-01
       O  8.59839e-01  3.59619e-01 -2.33849e-01
       H  3.82618e-01  1.09690e+00 -5.59104e-01
       H -2.60985e-01 -1.20859e+00  6.44701e-01
       L  2.34697e+01  7.71728e-02 -1.84177e+00
       L  3.71160e+00  3.88290e+00 -1.16349e+00
6
# CELL(abcABC):  459.05226   459.05226   459.05226    90.00000    90.00000    90.00000  Step:          37  Bead:       0 x_centroid{angstrom}  cell{atomic_unit}
       C -4.19991e-01 -2.52282e-01  1.55276e-01
       O  8.62360e-01  3.63243e-01 -2.35526e-01
       H  4.21389e-01  1.12553e+00 -5.69102e-01
       H -2.50610e-01 -1.21426e+00  6.39763e-01
       L  2.15793e+01  2.28909e-01 -2.07100e+00
       L  3.95911e+00  3.91808e+00 -6.96242e-01
6
# CELL(abcABC):  459.05226   459.05226   459.05226    90.00000    90.00000    90.00000  Step:          38  Bead:       0 x_centroid{angstrom}  cell{atomic_unit}
       C -4.27399e-01 -2.58714e-01  1.59035e-01
       O  8.64984e-01  3.66820e-01 -2.37343e-01
       H  4.58465e-01  1.15191e+00 -5.80248e-01
       H -2.40138e-01 -1.22088e+00  6.34847e-01
       L  1.96544e+01  3.87030e-01 -2.33627e+00
       L  4.19369e+00  3.94570e+00 -2.22935e-01
6
# CELL(abcABC):  459.05226   459.05226   459.05226    90.00000    90.00000    90.00000  Step:          39  Bead:       0 x_centroid{angstrom}  cell{atomic_unit}
       C -4.34833e-01 -2.64623e-01  1.62737e-01
       O  8.67670e-01  3.70139e-01 -2.38997e-01
       H  4.95256e-01  1.17597e+00 -5.91722e-01
       H -2.29961e-01 -1.22729e+00  6.28325e-01
       L  1.76270e+01  4.85646e-01 -2.54848e+00
       L  4.33666e+00  3.99500e+00  2.42999e-01
6
# CELL(abcABC):  459.05226   459.05226   459.05226    90.00000    90.00000    90.00000  Step:          40  Bead:       0 x_centroid{angstrom}  cell{atomic_unit}
       C -4.41807e-01 -2.70092e-01  1.66615e-01
       O  8.70042e-01  3.73299e-01 -2.40812e-01
       H  5.30649e-01  1.19683e+00 -6.02131e-01
       H -2.18825e-01 -1.23314e+00  6.21205e-01
       L  1.55817e+01  5.00558e-01 -2.72002e+00
       L  4.41666e+00  3.97833e+00  6.57034e-01
6
# CELL(abcABC):  459.05226   459.05226   459.05226    90.00000    90.00000    90.00000  Step:          41  Bead:       0 x_centroid{angstrom}  cell{atomic_unit}
       C -4.48862e-01 -2.75156e-01  1.70285e-01
       O  8.72493e-01  3.76372e-01 -2.42383e-01
       H  5.65270e-01  1.21309e+00 -6.10987e-01
       H -2.07172e-01 -1.23780e+00  6.11122e-01
       L  1.34878e+01  5.21106e-01 -2.88277e+00
       L  4.47247e+00  3.88574e+00  1.07740e+00
6
# CELL(abcABC):  459.05226   459.05226   459.05226    90.00000    90.00000    90.00000  Step:          42  Bead:       0 x_centroid{angstrom}  cell{atomic_unit}
       C -4.55378e-01 -2.79887e-01  1.73938e-01
       O  8.74513e-01  3.79354e-01 -2.43882e-01
       H  5.99384e-01  1.22567e+00 -6.19620e-01
       H -1.94499e-01 -1.24122e+00  5.99881e-01
       L  1.13142e+01  4.92643e-01 -3.04549e+00
       L  4.41428e+00  3.70541e+00  1.51945e+00
6
# CELL(abcABC):  459.05226   459.05226   459.05226    90.00000    90.00000    90.00000  Step:          43  Bead:       0 x_centroid{angstrom}  cell{atomic_unit}
       C -4.61165e-01 -2.84002e-01  1.77570e-01
       O  8.75836e-01  3.82132e-01 -2.45376e-01
       H  6.34537e-01  1.23310e+00 -6.27639e-01
       H -1.80440e-01 -1.24357e+00  5.88183e-01
       L  9.14560e+00  4.52651e-01 -3.22307e+00
       L  4.26410e+00  3.46549e+00  1.95566e+00
6
# CELL(abcABC):  459.05226   459.05226   459.05226    90.00000    90.00000    90.00000  Step:          44  Bead:       0 x_centroid{angstrom}  cell{atomic_unit}
       C -4.66167e-01 -2.87464e-01  1.80798e-01
       O  8.76497e-01  3.84658e-01 -2.46557e-01
       H  6.70062e-01  1.23743e+00 -6.35723e-01
       H -1.65587e-01 -1.24662e+00  5.76371e-01
       L  7.00991e+00  4.52880e-01 -3.32003e+00
       L  4.09204e+00  3.25806e+00  2.38489e+00
6
# CELL(abcABC):  459.05226   459.05226   459.05226    90.00000    90.00000    90.00000  Step:          45  Bead:       0 x_centroid{angstrom}  cell{atomic_unit}
       C -4.70352e-01 -2.90293e-01  1.83541e-01
       O  8.76444e-01  3.86874e-01 -2.47506e-01
       H  7.04251e-01  1.23823e+00 -6.41223e-01
       H -1.47853e-01 -1.24877e+00  5.64041e-01
       L  4.95894e+00  4.46695e-01 -3.34865e+00
       L  3.90415e+00  3.05254e+00  2.79081e+00
6
# CELL(abcABC):  459.05226   459.05226   459.05226    90.00000    90.00000    90.00000  Step:          46  Bead:       0 x_centroid{angstrom}  cell{atomic_unit}
       C -4.73406e-01 -2.92062e-01  1.86002e-01
       O  8.75485e-01  3.88340e-01 -2.48063e-01
       H  7.36887e-01  1.23812e+00 -6.47805e-01
       H -1.27647e-01 -1.25073e+00  5.49866e-01
       L  2.91211e+00  4.58645e-01 -3.26807e+00
       L  3.69802e+00  2.81492e+00  3.19959e+00
6
# CELL(abcABC):  459.05226   459.05226   459.05226    90.00000    90.00000    90.00000  Step:          47  Bead:       0 x_centroid{angstrom}  cell{atomic_unit}
       C -4.75337e-01 -2.93152e-01  1.88369e-01
       O  8.73627e-01  3.89226e-01 -2.48459e-01
       H  7.68338e-01  1.23718e+00 -6.55015e-01
       H -1.05399e-01 -1.25069e+00  5.34840e-01
       L  9.66349e-01  4.09520e-01 -3.11698e+00
       L  3.45824e+00  2.55262e+00  3.63490e+00
6
# CELL(abcABC):  459.05226   459.05226   459.05226    90.00000    90.00000    90.00000  Step:          48  Bead:       0 x_centroid{angstrom}  cell{atomic_unit}
       C -4.76070e-01 -2.93697e-01  1.90150e-01
       O  8.70939e-01  3.89631e-01 -2.48303e-01
       H  7.98093e-01  1.23666e+00 -6.63138e-01
       H -8.26107e-02 -1.24993e+00  5.18943e-01
       L -9.10826e-01  3.59454e-01 -2.91981e+00
       L  3.21583e+00  2.26711e+00  4.04955e+00
6
# CELL(abcABC):  459.05226   459.05226   459.05226    90.00000    90.00000    90.00000  Step:          49  Bead:       0 x_centroid{angstrom}  cell{atomic_unit}
       C -4.75790e-01 -2.93614e-01  1.91611e-01
       O  8.67570e-01  3.89485e-01 -2.47916e-01
       H  8.25583e-01  1.23687e+00 -6.70854e-01
       H -5.87817e-02 -1.24862e+00  5.02752e-01
       L -2.79117e+00  3.00601e-01 -2.67337e+00
       L  2.94564e+00  1.98704e+00  4.43901e+00
6
# CELL(abcABC):  459.05226   459.05226   459.05226    90.00000    90.00000    90.00000  Step:          50  Bead:       0 x_centroid{angstrom}  cell{atomic_unit}
       C -4.74838e-01 -2.92981e-01  1.93082e-01
       O  8.63860e-01  3.88963e-01 -2.47485e-01
       H  8.50547e-01  1.23675e+00 -6.79089e-01
       H -3.50337e-02 -1.24756e+00  4.86265e-01
       L -4.63809e+00  2.65625e-01 -2.38598e+00
       L  2.64484e+00  1.66817e+00  4.79030e+00
6
# CELL(abcABC):  459.05226   459.05226   459.05226    90.00000    90.00000    90.00000  Step:          51  Bead:       0 x_centroid{angstrom}  cell{atomic_unit}
       C -4.73406e-01 -2.92335e-01  1.94249e-01
       O  8.60113e-01  3.88547e-01 -2.46850e-01
       H  8.71603e-01  1.23480e+00 -6.86206e-01
       H -1.25010e-02 -1.24646e+00  4.69053e-01
       L -6.51702e+00  2.07967e-01 -1.99244e+00
       L  2.36146e+00  1.26508e+00  5.06252e+00
6
# CELL(abcABC):  459.05226   459.05226   459.05226    90.00000    90.00000    90.00000  Step:          52  Bead:       0 x_centroid{angstrom}  cell{atomic_unit}
       C -4.71890e-01 -2.91460e-01  1.95541e-01
       O  8.56690e-01  3.87991e-01 -2.46219e-01
       H  8.88289e-01  1.22980e+00 -6.92828e-01
       H  8.25102e-03 -1.24276e+00  4.49928e-01
       L -8.40491e+00  1.12949e-01 -1.61911e+00
       L  2.10947e+00  8.06604e-01  5.28527e+00
6
# CELL(abcABC):  459.05226   459.05226   459.05226    90.00000    90.00000    90.00000  Step:          53  Bead:       0 x_centroid{angstrom}  cell{atomic_unit}
       C -4.70065e-01 -2.90578e-01  1.96898e-01
       O  8.53528e-01  3.87726e-01 -2.45702e-01
       H  8.99550e-01  1.22029e+00 -6.98223e-01
       H  2.66219e-02 -1.23922e+00  4.30654e-01
       L -1.03177e+01  2.19544e-02 -1.26019e+00
       L  1.84180e+00  2.81439e-01  5.46001e+00
6
# CELL(abcABC):  459.05226   459.05226   459.05226    90.00000    90.00000    90.00000  Step:          54  Bead:       0 x_centroid{angstrom}  cell{atomic_unit}
       C -4.67824e-01 -2.89480e-01  1.97636e-01
       O  8.50695e-01  3.87348e-01 -2.44687e-01
       H  9.04252e-01  1.20993e+00 -7.03590e-01
       H  4.14247e-02 -1.23561e+00  4.10850e-01
       L -1.22662e+01 -5.16666e-02 -8.57385e-01
       L  1.52664e+00 -2.62150e-01  5.56014e+00
6
# CELL(abcABC):  459.05226   459.05226   459.05226    90.00000    90.00000    90.00000  Step:          55  Bead:       0 x_centroid{angstrom}  cell{atomic_unit}
       C -4.65547e-01 -2.88413e-01  1.98358e-01
       O  8.48246e-01  3.86951e-01 -2.43726e-01
       H  9.04181e-01  1.19845e+00 -7.08214e-01
       H  5.45546e-02 -1.23023e+00  3.91375e-01
       L -1.43131e+01 -1.06997e-01 -4.91683e-01
       L  1.14559e+00 -7.83145e-01  5.60941e+00
6
# CELL(abcABC):  459.05226   459.05226   459.05226    90.00000    90.00000    90.00000  Step:          56  Bead:       0 x_centroid{angstrom}  cell{atomic_unit}
       C -4.62895e-01 -2.87229e-01  1.98655e-01
       O  8.46004e-01  3.86519e-01 -2.42468e-01
       H  8.99083e-01  1.18613e+00 -7.12539e-01
       H  6.49856e-02 -1.22481e+00  3.72009e-01
       L -1.63854e+01 -1.77459e-01 -1.52177e-01
       L  7.48212e-01 -1.37549e+00  5.62127e+00
6
# CELL(abcABC):  459.05226   459.05226   459.05226    90.00000    90.00000    90.00000  Step:          57  Bead:       0 x_centroid{angstrom}  cell{atomic_unit}
       C -4.59781e-01 -2.85110e-01  1.98865e-01
       O  8.43810e-01  3.85344e-01 -2.41053e-01
       H  8.89766e-01  1.17460e+00 -7.17453e-01
       H  7.33768e-02 -1.21949e+00  3.51822e-01
       L -1.84671e+01 -2.37289e-01  1.32414e-01
       L  3.25280e-01 -2.00542e+00  5.57131e+00
6
# CELL(abcABC):  459.05226   459.05226   459.05226    90.00000    90.00000    90.00000  Step:          58  Bead:       0 x_centroid{angstrom}  cell{atomic_unit}
       C -4.56073e-01 -2.82599e-01  1.98697e-01
       O  8.41534e-01  3.83740e-01 -2.39304e-01
       H  8.76176e-01  1.16477e+00 -7.23429e-01
       H  8.02933e-02 -1.21368e+00  3.31957e-01
       L -2.05535e+01 -3.37446e-01  4.04066e-01
       L -1.22067e-01 -2.71050e+00  5.46959e+00
6
# CELL(abcABC):  459.05226   459.05226   459.05226    90.00000    90.00000    90.00000  Step:          59  Bead:       0 x_centroid{angstrom}  cell{atomic_unit}
       C -4.51499e-01 -2.79615e-01  1.97929e-01
       O  8.39023e-01  3.81576e-01 -2.37106e-01
       H  8.58745e-01  1.16004e+00 -7.31458e-01
       H  8.44527e-02 -1.20974e+00  3.14193e-01
       L -2.26309e+01 -4.36768e-01  6.63819e-01
       L -5.79138e-01 -3.38298e+00  5.29626e+00
6
# CELL(abcABC):  459.05226   459.05226   459.05226    90.00000    90.00000    90.00000  Step:          60  Bead:       0 x_centroid{angstrom}  cell{atomic_unit}
       C -4.46032e-01 -2.76102e-01  1.96590e-01
       O  8.36215e-01  3.78953e-01 -2.34652e-01
       H  8.38230e-01  1.15747e+00 -7.40415e-01
       H  8.57832e-02 -1.20699e+00  3.00164e-01
       L -2.47332e+01 -4.99294e-01  8.75467e-01
       L -1.03748e+00 -4.05873e+00  5.07343e+00
6
# CELL(abcABC):  459.05226   459.05226   459.05226    90.00000    90.00000    90.00000  Step:          61  Bead:       0 x_centroid{angstrom}  cell{atomic_unit}
       C -4.39635e-01 -2.72223e-01  1.94352e-01
       O  8.32896e-01  3.75984e-01 -2.31678e-01
       H  8.16257e-01  1.15697e+00 -7.50696e-01
       H  8.55260e-02 -1.20520e+00  2.89943e-01
       L -2.67305e+01 -5.22225e-01  1.02073e+00
       L -1.43788e+00 -4.75893e+00  4.86973e+00
6
# CELL(abcABC):  459.05226   459.05226   459.05226    90.00000    90.00000    90.00000  Step:          62  Bead:       0 x_centroid{angstrom}  cell{atomic_unit}
       C -4.32369e-01 -2.67947e-01  1.91603e-01
       O  8.29168e-01  3.72821e-01 -2.28451e-01
       H  7.92466e-01  1.15547e+00 -7.61621e-01
       H  8.32138e-02 -1.20406e+00  2.82476e-01
       L -2.87575e+01 -5.21510e-01  1.12091e+00
       L -1.81090e+00 -5.48196e+00  4.62635e+00
6
# CELL(abcABC):  459.05226   459.05226   459.05226    90.00000    90.00000    90.00000  Step:          63  Bead:       0 x_centroid{angstrom}  cell{atomic_unit}
       C -4.23969e-01 -2.63245e-01  1.88744e-01
       O  8.24893e-01  3.69501e-01 -2.25249e-01
       H  7.67416e-01  1.15290e+00 -7.72679e-01
       H  7.72617e-02 -1.20443e+00  2.76899e-01
       L -3.06934e+01 -5.01995e-01  1.19629e+00
       L -2.15732e+00 -6.20215e+00  4.32906e+00
6
# CELL(abcABC):  459.05226   459.05226   459.05226    90.00000    90.00000    90.00000  Step:          64  Bead:       0 x_centroid{angstrom}  cell{atomic_unit}
       C -4.15086e-01 -2.58259e-01  1.85519e-01
       O  8.20608e-01  3.66270e-01 -2.22004e-01
       H  7.42270e-01  1.14626e+00 -7.82061e-01
       H  6.58185e-02 -1.20556e+00  2.73366e-01
       L -3.26096e+01 -4.54008e-01  1.24373e+00
       L -2.48479e+00 -6.91817e+00  3.99736e+00
6
# CELL(abcABC):  459.05226   459.05226   459.05226    90.00000    90.00000    90.00000  Step:          65  Bead:       0 x_centroid{angstrom}  cell{atomic_unit}
       C -4.05763e-01 -2.53007e-01  1.81930e-01
       O  8.16282e-01  3.63247e-01 -2.18768e-01
       H  7.16285e-01  1.13492e+00 -7.89252e-01
       H  5.05712e-02 -1.20842e+00  2.72127e-01
       L -3.45271e+01 -3.78007e-01  1.31546e+00
       L -2.79524e+00 -7.71850e+00  3.59037e+00
6
# CELL(abcABC):  459.05226   459.05226   459.05226    90.00000    90.00000    90.00000  Step:          66  Bead:       0 x_centroid{angstrom}  cell{atomic_unit}
       C -3.95726e-01 -2.47541e-01  1.78094e-01