6
# CELL(abcABC):  459.05226   459.05226   459.05226    90.00000    90.00000    90.00000  Step:           0  Bead:       0 x_centroid{angstrom}  cell{atomic_unit}
       C -3.39887e-01 -1.13437e-01  8.06659e-02
       O  8.43483e-01  2.62672e-01 -1.81512e-01
       H -7.35799e-02  8.16467e-01 -6.61432e-01
       H -4.30016e-01 -9.65701e-01  7.62278e-01
       L  6.13458e+01  0.00000e+00  0.00000e+00
       L  0.00000e+00  8.59064e+00  0.00000e+00
6
# CELL(abcABC):  459.05226   459.05226   459.05226    90.00000    90.00000    90.00000  Step:           1  Bead:       0 x_centroid{angstrom}  cell{atomic_unit}
       C -3.38044e-01 -1.13448e-01  8.30474e-02
       O  8.41562e-01  2.61174e-01 -1.82506e-01
       H -6.02415e-02  8.24260e-01 -6.63259e-01
       H -4.34587e-01 -9.49787e-01  7.51871e-01
       L  6.09895e+01  1.92615e-01 -1.50954e-01
       L -6.98269e-02  8.77427e+00 -5.46882e-01
6
# CELL(abcABC):  459.05226   459.05226   459.05226    90.00000    90.00000    90.00000  Step:           2  Bead:       0 x_centroid{angstrom}  cell{atomic_unit}
       C -3.36657e-01 -1.13687e-01  8.53901e-02
       O  8.40505e-01  2.60017e-01 -1.83449e-01
       H -5.27118e-02  8.30006e-01 -6.65348e-01
       H -4.41642e-01 -9.34502e-01  7.41367e-01
       L  6.06257e+01  3.48820e-01 -2.47256e-01
       L -1.03439e-01  8.95077e+00 -1.08319e+00
6
# CELL(abcABC):  459.05226   459.05226   459.05226    90.00000    90.00000    90.00000  Step:           3  Bead:       0 x_centroid{angstrom}  cell{atomic_unit}
       C -3.35694e-01 -1.13598e-01  8.77245e-02
       O  8.40178e-01  2.58776e-01 -1.84644e-01
       H -5.00444e-02  8.34965e-01 -6.64840e-01
       H -4.50352e-01 -9.21014e-01  7.32299e-01
       L  6.02062e+01  5.31480e-01 -3.11625e-01
       L -1.45988e-01  9.09334e+00 -1.56579e+00
6
# CELL(abcABC):  459.05226   459.05226   459.05226    90.00000    90.00000    90.00000  Step:           4  Bead:       0 x_centroid{angstrom}  cell{atomic_unit}
       C -3.35481e-01 -1.13413e-01  8.96961e-02
       O  8.40634e-01  2.57956e-01 -1.85782e-01
       H -5.08689e-02  8.38000e-01 -6.63684e-01
       H -4.59043e-01 -9.13392e-01  7.26020e-01
       L  5.97848e+01  7.04394e-01 -4.19451e-01
       L -2.10496e-01  9.21257e+00 -2.02151e+00
6
# CELL(abcABC):  459.05226   459.05226   459.05226    90.00000    90.00000    90.00000  Step:           5  Bead:       0 x_centroid{angstrom}  cell{atomic_unit}
       C -3.35336e-01 -1.12594e-01  9.14206e-02
       O  8.41323e-01  2.57010e-01 -1.86883e-01
       H -5.47793e-02  8.40158e-01 -6.61847e-01
       H -4.67556e-01 -9.10461e-01  7.21410e-01
       L  5.93548e+01  9.42403e-01 -5.20150e-01
       L -2.32488e-01  9.26943e+00 -2.45132e+00
6
# CELL(abcABC):  459.05226   459.05226   459.05226    90.00000    90.00000    90.00000  Step:           6  Bead:       0 x_centroid{angstrom}  cell{atomic_unit}
       C -3.35356e-01 -1.11172e-01  9.24166e-02
       O  8.42139e-01  2.56109e-01 -1.87804e-01
       H -5.75494e-02  8.41449e-01 -6.58364e-01
       H -4.77270e-01 -9.14546e-01  7.20951e-01
       L  5.89482e+01  1.19199e+00 -6.17245e-01
       L -2.53214e-01  9.30962e+00 -2.85501e+00
6
# CELL(abcABC):  459.05226   459.05226   459.05226    90.00000    90.00000    90.00000  Step:           7  Bead:       0 x_centroid{angstrom}  cell{atomic_unit}
       C -3.35915e-01 -1.09378e-01  9.29996e-02
       O  8.43256e-01  2.55302e-01 -1.88588e-01
       H -5.79655e-02  8.42484e-01 -6.56344e-01
       H -4.87625e-01 -9.24323e-01  7.24663e-01
       L  5.85280e+01  1.42059e+00 -7.01230e-01
       L -3.47028e-01  9.41098e+00 -3.21119e+00
6
# CELL(abcABC):  459.05226   459.05226   459.05226    90.00000    90.00000    90.00000  Step:           8  Bead:       0 x_centroid{angstrom}  cell{atomic_unit}
       C -3.36591e-01 -1.07236e-01  9.31271e-02
       O  8.44067e-01  2.54548e-01 -1.89377e-01
       H -5.33393e-02  8.42519e-01 -6.54339e-01
       H -4.96821e-01 -9.38090e-01  7.33872e-01
       L  5.81738e+01  1.62222e+00 -7.45598e-01
       L -4.52019e-01  9.53379e+00 -3.53697e+00
6
# CELL(abcABC):  459.05226   459.05226   459.05226    90.00000    90.00000    90.00000  Step:           9  Bead:       0 x_centroid{angstrom}  cell{atomic_unit}
       C -3.37602e-01 -1.04680e-01  9.33702e-02
       O  8.44853e-01  2.53720e-01 -1.90423e-01
       H -4.51084e-02  8.42172e-01 -6.51717e-01
       H -5.05247e-01 -9.55229e-01  7.45111e-01
       L  5.78502e+01  1.81531e+00 -7.51285e-01
       L -5.69899e-01  9.64045e+00 -3.81569e+00
6
# CELL(abcABC):  459.05226   459.05226   459.05226    90.00000    90.00000    90.00000  Step:          10  Bead:       0 x_centroid{angstrom}  cell{atomic_unit}
       C -3.38929e-01 -1.02203e-01  9.35055e-02
       O  8.45692e-01  2.53095e-01 -1.91418e-01
       H -3.57039e-02  8.40646e-01 -6.49302e-01
       H -5.11923e-01 -9.73396e-01  7.56974e-01
       L  5.75252e+01  1.93234e+00 -7.10172e-01
       L -6.78734e-01  9.72186e+00 -4.04014e+00
6
# CELL(abcABC):  459.05226   459.05226   459.05226    90.00000    90.00000    90.00000  Step:          11  Bead:       0 x_centroid{angstrom}  cell{atomic_unit}
       C -3.40635e-01 -9.98456e-02  9.35812e-02
       O  8.46854e-01  2.52556e-01 -1.92246e-01
       H -2.82379e-02  8.36524e-01 -6.47215e-01
       H -5.17272e-01 -9.88890e-01  7.67170e-01
       L  5.71768e+01  2.00592e+00 -5.83937e-01
       L -7.48264e-01  9.78799e+00 -4.24154e+00
6
# CELL(abcABC):  459.05226   459.05226   459.05226    90.00000    90.00000    90.00000  Step:          12  Bead:       0 x_centroid{angstrom}  cell{atomic_unit}
       C -3.43232e-01 -9.77747e-02  9.35800e-02
       O  8.48991e-01  2.52188e-01 -1.92848e-01
       H -2.48108e-02  8.30198e-01 -6.43949e-01
       H -5.23433e-01 -1.00143e+00  7.73485e-01
       L  5.68147e+01  2.05502e+00 -4.09458e-01
       L -8.47718e-01  9.79616e+00 -4.43758e+00
6
# CELL(abcABC):  459.05226   459.05226   459.05226    90.00000    90.00000    90.00000  Step:          13  Bead:       0 x_centroid{angstrom}  cell{atomic_unit}
       C -3.46600e-01 -9.60922e-02  9.37107e-02
       O  8.51850e-01  2.52020e-01 -1.93242e-01
       H -2.43466e-02  8.21755e-01 -6.40884e-01
       H -5.28862e-01 -1.01034e+00  7.75077e-01
       L  5.63875e+01  2.08684e+00 -1.77850e-01
       L -9.19866e-01  9.69725e+00 -4.60878e+00
6
# CELL(abcABC):  459.05226   459.05226   459.05226    90.00000    90.00000    90.00000  Step:          14  Bead:       0 x_centroid{angstrom}  cell{atomic_unit}
       C -3.50418e-01 -9.45509e-02  9.42556e-02
       O  8.55054e-01  2.51742e-01 -1.93616e-01
       H -2.59525e-02  8.13886e-01 -6.38823e-01
       H -5.32370e-01 -1.01637e+00  7.72405e-01
       L  5.59252e+01  2.07774e+00  6.26306e-02
       L -9.46745e-01  9.60118e+00 -4.74280e+00
6
# CELL(abcABC):  459.05226   459.05226   459.05226    90.00000    90.00000    90.00000  Step:          15  Bead:       0 x_centroid{angstrom}  cell{atomic_unit}
       C -3.54342e-01 -9.36548e-02  9.54089e-02
       O  8.57954e-01  2.51641e-01 -1.94098e-01
       H -2.34215e-02  8.08600e-01 -6.38626e-01
       H -5.33917e-01 -1.02005e+00  7.66028e-01
       L  5.54554e+01  2.01428e+00  3.37339e-01
       L -9.22666e-01  9.47087e+00 -4.85527e+00
6
# CELL(abcABC):  459.05226   459.05226   459.05226    90.00000    90.00000    90.00000  Step:          16  Bead:       0 x_centroid{angstrom}  cell{atomic_unit}
       C -3.57908e-01 -9.31641e-02  9.69060e-02
       O  8.60052e-01  2.51547e-01 -1.94624e-01
       H -1.51548e-02  8.06575e-01 -6.40856e-01
       H -5.32738e-01 -1.02228e+00  7.58657e-01
       L  5.50187e+01  1.99484e+00  5.94051e-01
       L -9.75330e-01  9.31122e+00 -4.90559e+00
6
# CELL(abcABC):  459.05226   459.05226   459.05226    90.00000    90.00000    90.00000  Step:          17  Bead:       0 x_centroid{angstrom}  cell{atomic_unit}
       C -3.61138e-01 -9.30296e-02  9.83808e-02
       O  8.61228e-01  2.51445e-01 -1.95004e-01
       H  8.35637e-04  8.07717e-01 -6.46049e-01
       H -5.28639e-01 -1.02337e+00  7.52143e-01
       L  5.45559e+01  2.02901e+00  8.47184e-01
       L -9.91506e-01  9.22276e+00 -4.84896e+00
6
# CELL(abcABC):  459.05226   459.05226   459.05226    90.00000    90.00000    90.00000  Step:          18  Bead:       0 x_centroid{angstrom}  cell{atomic_unit}
       C -3.64238e-01 -9.32498e-02  9.99409e-02
       O  8.61993e-01  2.51119e-01 -1.95245e-01
       H  2.03540e-02  8.13748e-01 -6.53705e-01
       H -5.23122e-01 -1.02160e+00  7.44831e-01
       L  5.41292e+01  2.02044e+00  1.13046e+00
       L -9.96410e-01  9.20824e+00 -4.76427e+00
6
# CELL(abcABC):  459.05226   459.05226   459.05226    90.00000    90.00000    90.00000  Step:          19  Bead:       0 x_centroid{angstrom}  cell{atomic_unit}
       C -3.67668e-01 -9.38556e-02  1.01703e-01
       O  8.62948e-01  2.50776e-01 -1.95374e-01
       H  3.91128e-02  8.21581e-01 -6.63849e-01
       H -5.15926e-01 -1.01674e+00  7.35847e-01
       L  5.36361e+01  1.98912e+00  1.38616e+00
       L -9.65906e-01  9.21858e+00 -4.69558e+00
6
# CELL(abcABC):  459.05226   459.05226   459.05226    90.00000    90.00000    90.00000  Step:          20  Bead:       0 x_centroid{angstrom}  cell{atomic_unit}
       C -3.71533e-01 -9.49720e-02  1.03655e-01
       O  8.64432e-01  2.50549e-01 -1.95483e-01
       H  5.49529e-02  8.30414e-01 -6.75617e-01
       H -5.08971e-01 -1.00867e+00  7.25891e-01
       L  5.30785e+01  1.98942e+00  1.63455e+00
       L -9.32561e-01  9.20678e+00 -4.60331e+00
6
# CELL(abcABC):  459.05226   459.05226   459.05226    90.00000    90.00000    90.00000  Step:          21  Bead:       0 x_centroid{angstrom}  cell{atomic_unit}
       C -3.75886e-01 -9.62526e-02  1.05546e-01
       O  8.66534e-01  2.50242e-01 -1.95473e-01
       H  6.63896e-02  8.39584e-01 -6.85951e-01
       H -5.01581e-01 -9.97674e-01  7.13346e-01
       L  5.24519e+01  1.97734e+00  1.86908e+00
       L -9.02538e-01  9.16685e+00 -4.48161e+00
6
# CELL(abcABC):  459.05226   459.05226   459.05226    90.00000    90.00000    90.00000  Step:          22  Bead:       0 x_centroid{angstrom}  cell{atomic_unit}
       C -3.80791e-01 -9.75481e-02  1.07608e-01
       O  8.69410e-01  2.49928e-01 -1.95671e-01
       H  7.36754e-02  8.47978e-01 -6.95896e-01
       H -4.95656e-01 -9.85586e-01  7.01691e-01
       L  5.17379e+01  1.94063e+00  2.07528e+00
       L -9.46414e-01  9.06926e+00 -4.35531e+00
6
# CELL(abcABC):  459.05226   459.05226   459.05226    90.00000    90.00000    90.00000  Step:          23  Bead:       0 x_centroid{angstrom}  cell{atomic_unit}
       C -3.85951e-01 -9.89848e-02  1.09547e-01
       O  8.72563e-01  2.49718e-01 -1.95891e-01
       H  7.91699e-02  8.56210e-01 -7.04290e-01
       H -4.89269e-01 -9.73261e-01  6.90265e-01
       L  5.09450e+01  1.85420e+00  2.29077e+00
       L -9.46185e-01  8.96386e+00 -4.19599e+00
6
# CELL(abcABC):  459.05226   459.05226   459.05226    90.00000    90.00000    90.00000  Step:          24  Bead:       0 x_centroid{angstrom}  cell{atomic_unit}
       C -3.91354e-01 -9.99755e-02  1.11340e-01
       O  8.75920e-01  2.49391e-01 -1.96200e-01
       H  8.46189e-02  8.63817e-01 -7.11187e-01
       H -4.83151e-01 -9.63763e-01  6.80468e-01
       L  5.00842e+01  1.76224e+00  2.51385e+00
       L -9.92289e-01  8.87728e+00 -4.01686e+00
6
# CELL(abcABC):  459.05226   459.05226   459.05226    90.00000    90.00000    90.00000  Step:          25  Bead:       0 x_centroid{angstrom}  cell{atomic_unit}
       C -3.96905e-01 -1.00623e-01  1.12767e-01
       O  8.79199e-01  2.49012e-01 -1.96519e-01
       H  9.33756e-02  8.71642e-01 -7.16114e-01
       H -4.77277e-01 -9.57787e-01  6.73236e-01
       L  4.91399e+01  1.68131e+00  2.64430e+00
       L -1.00879e+00  8.82746e+00 -3.75283e+00
6
# CELL(abcABC):  459.05226   459.05226   459.05226    90.00000    90.00000    90.00000  Step:          26  Bead:       0 x_centroid{angstrom}  cell{atomic_unit}
       C -4.02110e-01 -1.00739e-01  1.14122e-01
       O  8.81884e-01  2.48717e-01 -1.97243e-01
       H  1.07648e-01  8.77705e-01 -7.18682e-01
       H -4.71619e-01 -9.57705e-01  6.70950e-01
       L  4.81586e+01  1.60025e+00  2.76880e+00
       L -9.85854e-01  8.74517e+00 -3.51169e+00
6
# CELL(abcABC):  459.05226   459.05226   459.05226    90.00000    90.00000    90.00000  Step:          27  Bead:       0 x_centroid{angstrom}  cell{atomic_unit}
       C -4.07218e-01 -1.00447e-01  1.15070e-01
       O  8.84241e-01  2.48691e-01 -1.98051e-01
       H  1.26848e-01  8.81103e-01 -7.19006e-01
       H -4.66818e-01 -9.64094e-01  6.72662e-01
       L  4.70797e+01  1.54490e+00  2.84967e+00
       L -9.40744e-01  8.68512e+00 -3.31622e+00
6
# CELL(abcABC):  459.05226   459.05226   459.05226    90.00000    90.00000    90.00000  Step:          28  Bead:       0 x_centroid{angstrom}  cell{atomic_unit}
       C -4.12051e-01 -9.98311e-02  1.15760e-01
       O  8.86051e-01  2.48864e-01 -1.99104e-01
       H  1.51996e-01  8.82838e-01 -7.16983e-01
       H -4.62516e-01 -9.75885e-01  6.78965e-01
       L  4.59563e+01  1.45573e+00  2.92427e+00
       L -8.86270e-01  8.71579e+00 -3.09124e+00
6
# CELL(abcABC):  459.05226   459.05226   459.05226    90.00000    90.00000    90.00000  Step:          29  Bead:       0 x_centroid{angstrom}  cell{atomic_unit}
       C -4.16892e-01 -9.91172e-02  1.15790e-01
       O  8.87524e-01  2.49248e-01 -2.00036e-01
       H  1.81553e-01  8.83687e-01 -7.13159e-01
       H -4.57134e-01 -9.91348e-01  6.89501e-01
       L  4.47442e+01  1.37700e+00  2.93653e+00
       L -8.43951e-01  8.80688e+00 -2.95163e+00
6
# CELL(abcABC):  459.05226   459.05226   459.05226    90.00000    90.00000    90.00000  Step:          30  Bead:       0 x_centroid{angstrom}  cell{atomic_unit}
       C -4.22364e-01 -9.86738e-02  1.16210e-01
       O  8.89353e-01  2.50070e-01 -2.01459e-01
       H  2.13192e-01  8.82767e-01 -7.07690e-01
       H -4.51937e-01 -1.00876e+00  7.01496e-01
       L  4.34777e+01  1.24285e+00  3.00037e+00
       L -8.07972e-01  8.94577e+00 -2.80750e+00
6
# CELL(abcABC):  459.05226   459.05226   459.05226    90.00000    90.00000    90.00000  Step:          31  Bead:       0 x_centroid{angstrom}  cell{atomic_unit}
       C -4.28383e-01 -9.83178e-02  1.16868e-01
       O  8.91513e-01  2.51111e-01 -2.03251e-01
       H  2.46743e-01  8.79894e-01 -7.00295e-01
       H -4.47361e-01 -1.02666e+00  7.14570e-01
       L  4.21439e+01  1.06667e+00  3.04392e+00
       L -7.20207e-01  9.11599e+00 -2.59793e+00
6
# CELL(abcABC):  459.05226   459.05226   459.05226    90.00000    90.00000    90.00000  Step:          32  Bead:       0 x_centroid{angstrom}  cell{atomic_unit}
       C -4.35362e-01 -9.85072e-02  1.18044e-01
       O  8.94386e-01  2.52559e-01 -2.05311e-01
       H  2.82028e-01  8.75373e-01 -6.91983e-01
       H -4.44349e-01 -1.04284e+00  7.24804e-01
       L  4.06758e+01  8.69355e-01  3.05413e+00
       L -6.00056e-01  9.27316e+00 -2.33992e+00
6
# CELL(abcABC):  459.05226   459.05226   459.05226    90.00000    90.00000    90.00000  Step:          33  Bead:       0 x_centroid{angstrom}  cell{atomic_unit}
       C -4.42849e-01 -9.94339e-02  1.19646e-01
       O  8.97497e-01  2.54426e-01 -2.07520e-01
       H  3.18317e-01  8.70259e-01 -6.83572e-01
       H -4.40028e-01 -1.05631e+00  7.32282e-01
       L  3.91184e+01  7.44219e-01  2.98477e+00
       L -4.84487e-01  9.39595e+00 -2.11016e+00
6
# CELL(abcABC):  459.05226   459.05226   459.05226    90.00000    90.00000    90.00000  Step:          34  Bead:       0 x_centroid{angstrom}  cell{atomic_unit}
       C -4.51011e-01 -1.00967e-01  1.21736e-01
       O  9.01164e-01  2.56489e-01 -2.09857e-01
       H  3.54768e-01  8.66263e-01 -6.76879e-01
       H -4.36611e-01 -1.06681e+00  7.37708e-01
       L  3.75008e+01  6.13600e-01  2.89557e+00
       L -3.83363e-01  9.53945e+00 -1.88088e+00
6
# CELL(abcABC):  459.05226   459.05226   459.05226    90.00000    90.00000    90.00000  Step:          35  Bead:       0 x_centroid{angstrom}  cell{atomic_unit}
       C -4.59512e-01 -1.02948e-01  1.24309e-01
       O  9.05113e-01  2.58296e-01 -2.12304e-01
       H  3.91986e-01  8.68789e-01 -6.73167e-01
       H -4.34278e-01 -1.07443e+00  7.42070e-01
       L  3.57327e+01  4.82622e-01  2.79973e+00
       L -3.08086e-01  9.72369e+00 -1.59396e+00
6
# CELL(abcABC):  459.05226   459.05226   459.05226    90.00000    90.00000    90.00000  Step:          36  Bead:       0 x_centroid{angstrom}  cell{atomic_unit}
       C -4.67608e-01 -1.05620e-01  1.27246e-01
       O  9.08676e-01  2.59895e-01 -2.14452e-01
       H  4.29899e-01  8.78331e-01 -6.75729e-01
       H -4.31287e-01 -1.07756e+00  7.43633e-01
       L  3.38877e+01  3.09899e-01  2.69162e+00
       L -2.69562e-01  9.97362e+00 -1.30470e+00
6
# CELL(abcABC):  459.05226   459.05226   459.05226    90.00000    90.00000    90.00000  Step:          37  Bead:       0 x_centroid{angstrom}  cell{atomic_unit}
       C -4.75073e-01 -1.08515e-01  1.30395e-01
       O  9.11824e-01  2.61027e-01 -2.16175e-01
       H  4.67173e-01  8.94747e-01 -6.84659e-01
       H -4.28598e-01 -1.07748e+00  7.42285e-01
       L  3.20162e+01  1.55743e-01  2.57011e+00
       L -2.08600e-01  1.01877e+01 -9.81405e-01
6
# CELL(abcABC):  459.05226   459.05226   459.05226    90.00000    90.00000    90.00000  Step:          38  Bead:       0 x_centroid{angstrom}  cell{atomic_unit}
       C -4.82458e-01 -1.11776e-01  1.33923e-01
       O  9.14946e-01  2.61724e-01 -2.17662e-01
       H  5.03880e-01  9.18527e-01 -6.98453e-01
       H -4.25889e-01 -1.07344e+00  7.37539e-01
       L  3.01277e+01 -2.92437e-02  2.41716e+00
       L -1.31686e-01  1.03372e+01 -6.43007e-01
6
# CELL(abcABC):  459.05226   459.05226   459.05226    90.00000    90.00000    90.00000  Step:          39  Bead:       0 x_centroid{angstrom}  cell{atomic_unit}
       C -4.89049e-01 -1.15165e-01  1.37394e-01
       O  9.17424e-01  2.62043e-01 -2.18750e-01
       H  5.40580e-01  9.46983e-01 -7.15497e-01
       H -4.22346e-01 -1.06656e+00  7.30372e-01
       L  2.81644e+01 -1.60546e-01  2.26571e+00
       L -4.49534e-02  1.04133e+01 -2.76907e-01
6
# CELL(abcABC):  459.05226   459.05226   459.05226    90.00000    90.00000    90.00000  Step:          40  Bead:       0 x_centroid{angstrom}  cell{atomic_unit}
       C -4.95012e-01 -1.18587e-01  1.41047e-01
       O  9.19370e-01  2.62031e-01 -2.19655e-01
       H  5.77153e-01  9.78283e-01 -7.34986e-01
       H -4.17736e-01 -1.05683e+00  7.20611e-01
       L  2.62213e+01 -2.56946e-01  2.10756e+00
       L  2.88887e-02  1.04222e+01  5.34645e-02
6
# CELL(abcABC):  459.05226   459.05226   459.05226    90.00000    90.00000    90.00000  Step:          41  Bead:       0 x_centroid{angstrom}  cell{atomic_unit}
       C -5.00409e-01 -1.22105e-01  1.44912e-01
       O  9.20853e-01  2.62100e-01 -2.20444e-01
       H  6.14784e-01  1.00738e+00 -7.56349e-01
       H -4.13581e-01 -1.04503e+00  7.08359e-01
       L  2.42891e+01 -3.42943e-01  1.90628e+00
       L  8.93842e-02  1.03587e+01  3.94017e-01
6
# CELL(abcABC):  459.05226   459.05226   459.05226    90.00000    90.00000    90.00000  Step:          42  Bead:       0 x_centroid{angstrom}  cell{atomic_unit}
       C -5.05349e-01 -1.25436e-01  1.48440e-01
       O  9.21829e-01  2.62233e-01 -2.20880e-01
       H  6.55577e-01  1.03214e+00 -7.77031e-01
       H -4.09983e-01 -1.03212e+00  6.93825e-01
       L  2.23658e+01 -3.62033e-01  1.67311e+00
       L  1.49298e-01  1.01947e+01  8.00815e-01
6
# CELL(abcABC):  459.05226   459.05226   459.05226    90.00000    90.00000    90.00000  Step:          43  Bead:       0 x_centroid{angstrom}  cell{atomic_unit}
       C -5.09730e-01 -1.28281e-01  1.51881e-01
       O  9.22307e-01  2.62490e-01 -2.21382e-01
       H  6.97023e-01  1.05021e+00 -7.95105e-01
       H -4.05769e-01 -1.02022e+00  6.78756e-01
       L  2.03795e+01 -3.91997e-01  1.44956e+00
       L  2.14507e-01  9.97278e+00  1.24227e+00
6
# CELL(abcABC):  459.05226   459.05226   459.05226    90.00000    90.00000    90.00000  Step:          44  Bead:       0 x_centroid{angstrom}  cell{atomic_unit}
       C -5.13443e-01 -1.30804e-01  1.55103e-01
       O  9.22158e-01  2.63240e-01 -2.22143e-01
       H  7.39039e-01  1.06015e+00 -8.07852e-01
       H -4.00071e-01 -1.01186e+00  6.65052e-01
       L  1.83455e+01 -3.70586e-01  1.24944e+00
       L  2.31783e-01  9.69330e+00  1.68125e+00
6
# CELL(abcABC):  459.05226   459.05226   459.05226    90.00000    90.00000    90.00000  Step:          45  Bead:       0 x_centroid{angstrom}  cell{atomic_unit}
       C -5.16632e-01 -1.32661e-01  1.58313e-01
       O  9.21539e-01  2.64375e-01 -2.23277e-01
       H  7.80303e-01  1.06188e+00 -8.17447e-01
       H -3.92379e-01 -1.00930e+00  6.54280e-01
       L  1.62860e+01 -3.62006e-01  1.03009e+00
       L  1.89113e-01  9.36352e+00  2.08352e+00
6
# CELL(abcABC):  459.05226   459.05226   459.05226    90.00000    90.00000    90.00000  Step:          46  Bead:       0 x_centroid{angstrom}  cell{atomic_unit}
       C -5.19619e-01 -1.33688e-01  1.61194e-01
       O  9.20941e-01  2.65720e-01 -2.24481e-01
       H  8.19643e-01  1.05505e+00 -8.23698e-01
       H -3.85493e-01 -1.01138e+00  6.45243e-01
       L  1.42369e+01 -3.65654e-01  8.05366e-01
       L  1.52279e-01  8.99822e+00  2.47019e+00
6
# CELL(abcABC):  459.05226   459.05226   459.05226    90.00000    90.00000    90.00000  Step:          47  Bead:       0 x_centroid{angstrom}  cell{atomic_unit}
       C -5.22736e-01 -1.33930e-01  1.63477e-01
       O  9.20502e-01  2.67235e-01 -2.25624e-01
       H  8.56119e-01  1.04306e+00 -8.26800e-01
       H -3.76662e-01 -1.02033e+00  6.39208e-01
       L  1.21318e+01 -3.64317e-01  5.98187e-01
       L  7.08795e-02  8.57744e+00  2.79816e+00
6
# CELL(abcABC):  459.05226   459.05226   459.05226    90.00000    90.00000    90.00000  Step:          48  Bead:       0 x_centroid{angstrom}  cell{atomic_unit}
       C -5.25327e-01 -1.33175e-01  1.65415e-01
       O  9.19750e-01  2.68700e-01 -2.26804e-01
       H  8.88738e-01  1.02703e+00 -8.27538e-01
       H -3.65267e-01 -1.03630e+00  6.35521e-01
       L  9.99375e+00 -3.99480e-01  4.18380e-01
       L -3.13310e-03  8.15948e+00  3.09289e+00
6
# CELL(abcABC):  459.05226   459.05226   459.05226    90.00000    90.00000    90.00000  Step:          49  Bead:       0 x_centroid{angstrom}  cell{atomic_unit}
       C -5.27406e-01 -1.31307e-01  1.66561e-01
       O  9.18707e-01  2.69893e-01 -2.27682e-01
       H  9.17285e-01  1.00803e+00 -8.26326e-01
       H -3.51240e-01 -1.05822e+00  6.34564e-01
       L  7.76975e+00 -4.55118e-01  2.02724e-01
       L -8.58520e-02  7.70507e+00  3.36325e+00
6
# CELL(abcABC):  459.05226   459.05226   459.05226    90.00000    90.00000    90.00000  Step:          50  Bead:       0 x_centroid{angstrom}  cell{atomic_unit}
       C -5.29092e-01 -1.29243e-01  1.67382e-01
       O  9.17526e-01  2.71093e-01 -2.28375e-01
       H  9.41734e-01  9.89135e-01 -8.24389e-01
       H -3.35607e-01 -1.08266e+00  6.33842e-01
       L  5.49733e+00 -4.88223e-01  1.21531e-03
       L -1.00321e-01  7.15647e+00  3.58373e+00
6
# CELL(abcABC):  459.05226   459.05226   459.05226    90.00000    90.00000    90.00000  Step:          51  Bead:       0 x_centroid{angstrom}  cell{atomic_unit}
       C -5.30015e-01 -1.26782e-01  1.67851e-01
       O  9.16008e-01  2.71873e-01 -2.28815e-01
       H  9.61156e-01  9.73581e-01 -8.23492e-01
       H -3.18656e-01 -1.10853e+00  6.34306e-01
       L  3.18253e+00 -4.81355e-01 -1.75178e-01
       L -1.24906e-01  6.65230e+00  3.81641e+00
6
# CELL(abcABC):  459.05226   459.05226   459.05226    90.00000    90.00000    90.00000  Step:          52  Bead:       0 x_centroid{angstrom}  cell{atomic_unit}
       C -5.30127e-01 -1.24037e-01  1.68351e-01
       O  9.14174e-01  2.72167e-01 -2.29013e-01
       H  9.77530e-01  9.61033e-01 -8.25657e-01
       H -3.03260e-01 -1.13308e+00  6.33645e-01
       L  7.96377e-01 -4.71095e-01 -3.70435e-01
       L -1.61762e-01  6.09335e+00  4.02343e+00
6
# CELL(abcABC):  459.05226   459.05226   459.05226    90.00000    90.00000    90.00000  Step:          53  Bead:       0 x_centroid{angstrom}  cell{atomic_unit}
       C -5.29121e-01 -1.21199e-01  1.68407e-01
       O  9.11768e-01  2.71920e-01 -2.28709e-01
       H  9.90062e-01  9.52932e-01 -8.30165e-01
       H -2.88247e-01 -1.15458e+00  6.32687e-01
       L -1.64091e+00 -4.66057e-01 -5.69239e-01
       L -1.88990e-01  5.57007e+00  4.17859e+00
6
# CELL(abcABC):  459.05226   459.05226   459.05226    90.00000    90.00000    90.00000  Step:          54  Bead:       0 x_centroid{angstrom}  cell{atomic_unit}
       C -5.27232e-01 -1.18550e-01  1.68148e-01
       O  9.08950e-01  2.71355e-01 -2.27956e-01
       H  9.99844e-01  9.46952e-01 -8.36645e-01
       H -2.74480e-01 -1.17092e+00  6.30409e-01
       L -4.11442e+00 -4.77524e-01 -8.44567e-01
       L -1.65265e-01  5.07193e+00  4.24417e+00
6
# CELL(abcABC):  459.05226   459.05226   459.05226    90.00000    90.00000    90.00000  Step:          55  Bead:       0 x_centroid{angstrom}  cell{atomic_unit}
       C -5.24458e-01 -1.15794e-01  1.67632e-01
       O  9.05732e-01  2.70127e-01 -2.26624e-01
       H  1.00607e+00  9.44542e-01 -8.46608e-01
       H -2.61367e-01 -1.18158e+00  6.25489e-01
       L -6.58870e+00 -4.43256e-01 -1.15515e+00
       L -1.13118e-01  4.52922e+00  4.34781e+00
6
# CELL(abcABC):  459.05226   459.05226   459.05226    90.00000    90.00000    90.00000  Step:          56  Bead:       0 x_centroid{angstrom}  cell{atomic_unit}
       C -5.20984e-01 -1.13668e-01  1.67266e-01
       O  9.02266e-01  2.68772e-01 -2.25246e-01
       H  1.00939e+00  9.45460e-01 -8.57518e-01
       H -2.49733e-01 -1.18605e+00  6.19011e-01
       L -9.07495e+00 -3.42684e-01 -1.43368e+00
       L -5.31386e-02  3.91046e+00  4.39134e+00
6
# CELL(abcABC):  459.05226   459.05226   459.05226    90.00000    90.00000    90.00000  Step:          57  Bead:       0 x_centroid{angstrom}  cell{atomic_unit}
       C -5.16889e-01 -1.12216e-01  1.66911e-01
       O  8.98693e-01  2.67223e-01 -2.23711e-01
       H  1.00903e+00  9.48299e-01 -8.67905e-01
       H -2.40153e-01 -1.18129e+00  6.09428e-01
       L -1.15605e+01 -2.30120e-01 -1.68038e+00
       L  1.42909e-02  3.23361e+00  4.35291e+00
6
# CELL(abcABC):  459.05226   459.05226   459.05226    90.00000    90.00000    90.00000  Step:          58  Bead:       0 x_centroid{angstrom}  cell{atomic_unit}
       C -5.12312e-01 -1.11233e-01  1.66837e-01
       O  8.95312e-01  2.65621e-01 -2.22158e-01
       H  1.00393e+00  9.50143e-01 -8.78773e-01
       H -2.34564e-01 -1.16912e+00  5.96703e-01
       L -1.41212e+01 -9.09452e-03 -1.93454e+00
       L  8.86388e-02  2.48785e+00  4.25616e+00
6
# CELL(abcABC):  459.05226   459.05226   459.05226    90.00000    90.00000    90.00000  Step:          59  Bead:       0 x_centroid{angstrom}  cell{atomic_unit}
       C -5.06849e-01 -1.10571e-01  1.67051e-01
       O  8.91727e-01  2.63978e-01 -2.20750e-01
       H  9.94792e-01  9.49200e-01 -8.87944e-01
       H -2.32273e-01 -1.14968e+00  5.81224e-01
       L -1.66874e+01  1.97697e-01 -2.19169e+00
       L  1.76005e-01  1.67048e+00  4.07517e+00
6
# CELL(abcABC):  459.05226   459.05226   459.05226    90.00000    90.00000    90.00000  Step:          60  Bead:       0 x_centroid{angstrom}  cell{atomic_unit}
       C -5.00931e-01 -1.10417e-01  1.67059e-01
       O  8.88111e-01  2.62363e-01 -2.19121e-01
       H  9.82633e-01  9.48511e-01 -8.96274e-01
       H -2.31890e-01 -1.12484e+00  5.63869e-01
       L -1.92309e+01  4.23025e-01 -2.45005e+00
       L  2.58446e-01  8.21624e-01  3.83612e+00
6
# CELL(abcABC):  459.05226   459.05226   459.05226    90.00000    90.00000    90.00000  Step:          61  Bead:       0 x_centroid{angstrom}  cell{atomic_unit}
       C -4.94566e-01 -1.10191e-01  1.67023e-01
       O  8.84444e-01  2.60647e-01 -2.17539e-01
       H  9.65842e-01  9.45815e-01 -9.01976e-01
       H -2.31416e-01 -1.09725e+00  5.45153e-01
       L -2.17557e+01  6.31182e-01 -2.67899e+00
       L  3.47557e-01 -3.35191e-02  3.59192e+00
6
# CELL(abcABC):  459.05226   459.05226   459.05226    90.00000    90.00000    90.00000  Step:          62  Bead:       0 x_centroid{angstrom}  cell{atomic_unit}
       C -4.87400e-01 -1.09225e-01  1.66465e-01
       O  8.80447e-01  2.58573e-01 -2.15819e-01
       H  9.45543e-01  9.41019e-01 -9.05065e-01
       H -2.31725e-01 -1.07069e+00  5.27857e-01
       L -2.42809e+01  8.12399e-01 -2.90479e+00
       L  4.17147e-01 -8.56587e-01  3.31963e+00
6
# CELL(abcABC):  459.05226   459.05226   459.05226    90.00000    90.00000    90.00000  Step:          63  Bead:       0 x_centroid{angstrom}  cell{atomic_unit}
       C -4.79699e-01 -1.08047e-01  1.65203e-01
       O  8.76217e-01  2.56420e-01 -2.14061e-01
       H  9.22163e-01  9.37907e-01 -9.04467e-01
       H -2.31653e-01 -1.04713e+00  5.14658e-01
       L -2.67648e+01  9.85529e-01 -3.11576e+00
       L  4.76557e-01 -1.58568e+00  3.04505e+00
6
# CELL(abcABC):  459.05226   459.05226   459.05226    90.00000    90.00000    90.00000  Step:          64  Bead:       0 x_centroid{angstrom}  cell{atomic_unit}
       C -4.71388e-01 -1.06218e-01  1.63281e-01
       O  8.71561e-01  2.54095e-01 -2.12272e-01
       H  8.96886e-01  9.36855e-01 -9.00596e-01
       H -2.30187e-01 -1.03068e+00  5.05539e-01
       L -2.92021e+01  1.15447e+00 -3.30111e+00
       L  4.88624e-01 -2.31070e+00  2.77389e+00
6
# CELL(abcABC):  459.05226   459.05226   459.05226    90.00000    90.00000    90.00000  Step:          65  Bead:       0 x_centroid{angstrom}  cell{atomic_unit}
       C -4.62415e-01 -1.03445e-01  1.60757e-01
       O  8.66371e-01  2.51434e-01 -2.10571e-01
       H  8.70304e-01  9.36999e-01 -8.92584e-01
       H -2.26847e-01 -1.02128e+00  5.00842e-01
       L -3.15990e+01  1.26081e+00 -3.46701e+00
       L  5.10471e-01 -3.02728e+00  2.49599e+00
6
# CELL(abcABC):  459.05226   459.05226   459.05226    90.00000    90.00000    90.00000  Step:          66  Bead:       0 x_centroid{angstrom}  cell{atomic_unit}
       C -4.53010e-01 -9.98005e-02  1.57842e-01