6
# CELL(abcABC):  459.05226   459.05226   459.05226    90.00000    90.00000    90.00000  Step:           0  Bead:       0 x_centroid{angstrom}  cell{atomic_unit}
       C -3.39887e-01 -1.13437e-01  8.06659e-02
       O  8.43483e-01  2.62672e-01 -1.81512e-01
       H -7.35799e-02  8.16467e-01 -6.61432e-01
       H -4.30016e-01 -9.65701e-01  7.62278e-01
       L  6.13458e+01  0.00000e+00  0.00000e+00
       L  0.00000e+00  8.59064e+00  0.00000e+00
6
# CELL(abcABC):  459.05226   459.05226   459.05226    90.00000    90.00000    90.00000  Step:           1  Bead:       0 x_centroid{angstrom}  cell{atomic_unit}
       C -3.38877e-01 -1.10413e-01  7.92319e-02
       O  8.43245e-01  2.61511e-01 -1.80252e-01
       H -7.77861e-02  8.04679e-01 -6.56848e-01
       H -4.33797e-01 -9.71491e-01  7.54705e-01
       L  6.08438e+01 -1.42794e-01  8.58028e-02
       L  1.53315e-02  8.65655e+00  5.23647e-02
6
# CELL(abcABC):  459.05226   459.05226   459.05226    90.00000    90.00000    90.00000  Step:           2  Bead:       0 x_centroid{angstrom}  cell{atomic_unit}
       C -3.37628e-01 -1.07423e-01  7.71956e-02
       O  8.42573e-01  2.60285e-01 -1.78603e-01
       H -7.91917e-02  7.94594e-01 -6.53078e-01
       H -4.36334e-01 -9.77559e-01  7.49012e-01
       L  6.03284e+01 -2.47203e-01  1.63213e-01
       L  6.49453e-03  8.74410e+00 -7.29008e-03
6
# CELL(abcABC):  459.05226   459.05226   459.05226    90.00000    90.00000    90.00000  Step:           3  Bead:       0 x_centroid{angstrom}  cell{atomic_unit}
       C -3.36332e-01 -1.04524e-01  7.49732e-02
       O  8.41649e-01  2.58896e-01 -1.76819e-01
       H -7.65225e-02  7.88976e-01 -6.50829e-01
       H -4.39492e-01 -9.84434e-01  7.44910e-01
       L  5.98203e+01 -3.47730e-01  2.47418e-01
       L  2.02299e-03  8.82877e+00 -5.49357e-02
6
# CELL(abcABC):  459.05226   459.05226   459.05226    90.00000    90.00000    90.00000  Step:           4  Bead:       0 x_centroid{angstrom}  cell{atomic_unit}
       C -3.34634e-01 -1.01843e-01  7.25852e-02
       O  8.40238e-01  2.57462e-01 -1.74827e-01
       H -7.00540e-02  7.87545e-01 -6.50636e-01
       H -4.43512e-01 -9.92156e-01  7.41551e-01
       L  5.93290e+01 -5.02053e-01  3.20334e-01
       L -3.52380e-02  8.93656e+00 -1.46029e-01
6
# CELL(abcABC):  459.05226   459.05226   459.05226    90.00000    90.00000    90.00000  Step:           5  Bead:       0 x_centroid{angstrom}  cell{atomic_unit}
       C -3.33024e-01 -9.92385e-02  7.02104e-02
       O  8.38888e-01  2.55935e-01 -1.72786e-01
       H -6.39189e-02  7.88057e-01 -6.51316e-01
       H -4.47101e-01 -9.99443e-01  7.38150e-01
       L  5.88793e+01 -6.80378e-01  4.00473e-01
       L -1.14107e-01  9.07240e+00 -2.46774e-01
6
# CELL(abcABC):  459.05226   459.05226   459.05226    90.00000    90.00000    90.00000  Step:           6  Bead:       0 x_centroid{angstrom}  cell{atomic_unit}
       C -3.31766e-01 -9.71723e-02  6.80604e-02
       O  8.37907e-01  2.54447e-01 -1.70686e-01
       H -5.99360e-02  7.91861e-01 -6.54291e-01
       H -4.50203e-01 -1.00424e+00  7.33408e-01
       L  5.84284e+01 -8.35577e-01  4.73074e-01
       L -2.35895e-01  9.21347e+00 -3.07810e-01
6
# CELL(abcABC):  459.05226   459.05226   459.05226    90.00000    90.00000    90.00000  Step:           7  Bead:       0 x_centroid{angstrom}  cell{atomic_unit}
       C -3.30986e-01 -9.55229e-02  6.62037e-02
       O  8.37574e-01  2.52893e-01 -1.68579e-01
       H -5.98620e-02  7.99171e-01 -6.59146e-01
       H -4.53977e-01 -1.00656e+00  7.26926e-01
       L  5.79661e+01 -9.78898e-01  4.83062e-01
       L -3.53704e-01  9.39644e+00 -2.89478e-01
6
# CELL(abcABC):  459.05226   459.05226   459.05226    90.00000    90.00000    90.00000  Step:           8  Bead:       0 x_centroid{angstrom}  cell{atomic_unit}
       C -3.30533e-01 -9.41375e-02  6.43756e-02
       O  8.37738e-01  2.51317e-01 -1.66304e-01
       H -6.30039e-02  8.07732e-01 -6.65758e-01
       H -4.58538e-01 -1.00661e+00  7.19170e-01
       L  5.75265e+01 -1.13964e+00  5.27034e-01
       L -4.54057e-01  9.54724e+00 -2.80276e-01
6
# CELL(abcABC):  459.05226   459.05226   459.05226    90.00000    90.00000    90.00000  Step:           9  Bead:       0 x_centroid{angstrom}  cell{atomic_unit}
       C -3.30495e-01 -9.27066e-02  6.28134e-02
       O  8.38395e-01  2.49620e-01 -1.64075e-01
       H -6.85189e-02  8.15356e-01 -6.72662e-01
       H -4.63604e-01 -1.00434e+00  7.09271e-01
       L  5.70725e+01 -1.27419e+00  5.65966e-01
       L -5.24902e-01  9.69157e+00 -2.40347e-01
6
# CELL(abcABC):  459.05226   459.05226   459.05226    90.00000    90.00000    90.00000  Step:          10  Bead:       0 x_centroid{angstrom}  cell{atomic_unit}
       C -3.30743e-01 -9.10822e-02  6.12351e-02
       O  8.38995e-01  2.47808e-01 -1.61676e-01
       H -7.03035e-02  8.21226e-01 -6.80203e-01
       H -4.68178e-01 -1.00082e+00  6.97478e-01
       L  5.67093e+01 -1.39128e+00  6.13333e-01
       L -5.69950e-01  9.80907e+00 -1.84082e-01
6
# CELL(abcABC):  459.05226   459.05226   459.05226    90.00000    90.00000    90.00000  Step:          11  Bead:       0 x_centroid{angstrom}  cell{atomic_unit}
       C -3.31281e-01 -8.98001e-02  5.99489e-02
       O  8.39394e-01  2.46209e-01 -1.59539e-01
       H -6.68069e-02  8.26160e-01 -6.87719e-01
       H -4.71380e-01 -9.95656e-01  6.86341e-01
       L  5.63801e+01 -1.47352e+00  6.72761e-01
       L -6.32920e-01  9.90234e+00 -1.20897e-01
6
# CELL(abcABC):  459.05226   459.05226   459.05226    90.00000    90.00000    90.00000  Step:          12  Bead:       0 x_centroid{angstrom}  cell{atomic_unit}
       C -3.31498e-01 -8.87691e-02  5.89950e-02
       O  8.39078e-01  2.44948e-01 -1.57681e-01
       H -5.72573e-02  8.30055e-01 -6.94738e-01
       H -4.73135e-01 -9.91798e-01  6.75138e-01
       L  5.61608e+01 -1.60010e+00  7.54124e-01
       L -7.57429e-01  9.99237e+00 -3.41662e-02
6
# CELL(abcABC):  459.05226   459.05226   459.05226    90.00000    90.00000    90.00000  Step:          13  Bead:       0 x_centroid{angstrom}  cell{atomic_unit}
       C -3.31979e-01 -8.78430e-02  5.80215e-02
       O  8.38832e-01  2.43947e-01 -1.55849e-01
       H -4.49298e-02  8.31834e-01 -6.99585e-01
       H -4.75648e-01 -9.88721e-01  6.62470e-01
       L  5.59976e+01 -1.67395e+00  8.11450e-01
       L -9.19369e-01  1.00666e+01 -1.28569e-02
6
# CELL(abcABC):  459.05226   459.05226   459.05226    90.00000    90.00000    90.00000  Step:          14  Bead:       0 x_centroid{angstrom}  cell{atomic_unit}
       C -3.32671e-01 -8.67176e-02  5.72236e-02
       O  8.38703e-01  2.42969e-01 -1.54223e-01
       H -3.23500e-02  8.31003e-01 -7.02766e-01
       H -4.77785e-01 -9.85780e-01  6.49258e-01
       L  5.58852e+01 -1.75516e+00  8.61973e-01
       L -1.09355e+00  1.01700e+01  1.00418e-01
6
# CELL(abcABC):  459.05226   459.05226   459.05226    90.00000    90.00000    90.00000  Step:          15  Bead:       0 x_centroid{angstrom}  cell{atomic_unit}
       C -3.33760e-01 -8.55690e-02  5.62136e-02
       O  8.39196e-01  2.42312e-01 -1.52547e-01
       H -2.34305e-02  8.26906e-01 -7.04487e-01
       H -4.81451e-01 -9.84925e-01  6.36316e-01
       L  5.58391e+01 -1.84539e+00  9.12175e-01
       L -1.25447e+00  1.02152e+01  2.06276e-01
6
# CELL(abcABC):  459.05226   459.05226   459.05226    90.00000    90.00000    90.00000  Step:          16  Bead:       0 x_centroid{angstrom}  cell{atomic_unit}
       C -3.35564e-01 -8.42543e-02  5.50923e-02
       O  8.40679e-01  2.41720e-01 -1.50898e-01
       H -1.97313e-02  8.20924e-01 -7.04496e-01
       H -4.87075e-01 -9.85178e-01  6.23438e-01
       L  5.58001e+01 -1.88710e+00  9.53403e-01
       L -1.39525e+00  1.02070e+01  3.22234e-01
6
# CELL(abcABC):  459.05226   459.05226   459.05226    90.00000    90.00000    90.00000  Step:          17  Bead:       0 x_centroid{angstrom}  cell{atomic_unit}
       C -3.37972e-01 -8.31179e-02  5.38874e-02
       O  8.42835e-01  2.41230e-01 -1.49335e-01
       H -1.81352e-02  8.15040e-01 -7.03000e-01
       H -4.94118e-01 -9.85041e-01  6.11383e-01
       L  5.57274e+01 -1.89582e+00  1.00399e+00
       L -1.51046e+00  1.01618e+01  4.62212e-01
6
# CELL(abcABC):  459.05226   459.05226   459.05226    90.00000    90.00000    90.00000  Step:          18  Bead:       0 x_centroid{angstrom}  cell{atomic_unit}
       C -3.40721e-01 -8.20399e-02  5.25007e-02
       O  8.45334e-01  2.40943e-01 -1.47693e-01
       H -1.81219e-02  8.10072e-01 -7.02326e-01
       H -5.00960e-01 -9.88379e-01  6.01056e-01
       L  5.56894e+01 -1.88094e+00  1.06109e+00
       L -1.61869e+00  1.01770e+01  6.08447e-01
6
# CELL(abcABC):  459.05226   459.05226   459.05226    90.00000    90.00000    90.00000  Step:          19  Bead:       0 x_centroid{angstrom}  cell{atomic_unit}
       C -3.43774e-01 -8.09450e-02  5.08947e-02
       O  8.47783e-01  2.40683e-01 -1.46035e-01
       H -1.41489e-02  8.07122e-01 -7.02709e-01
       H -5.07368e-01 -9.94377e-01  5.94130e-01
       L  5.56481e+01 -1.85588e+00  1.09004e+00
       L -1.65899e+00  1.02136e+01  8.09517e-01
6
# CELL(abcABC):  459.05226   459.05226   459.05226    90.00000    90.00000    90.00000  Step:          20  Bead:       0 x_centroid{angstrom}  cell{atomic_unit}
       C -3.46771e-01 -7.97361e-02  4.95920e-02
       O  8.49944e-01  2.40198e-01 -1.44620e-01
       H -6.06389e-03  8.07904e-01 -7.04317e-01
       H -5.13995e-01 -1.00196e+00  5.88671e-01
       L  5.56112e+01 -1.76045e+00  1.14364e+00
       L -1.71898e+00  1.02884e+01  1.00284e+00
6
# CELL(abcABC):  459.05226   459.05226   459.05226    90.00000    90.00000    90.00000  Step:          21  Bead:       0 x_centroid{angstrom}  cell{atomic_unit}
       C -3.49461e-01 -7.86920e-02  4.79512e-02
       O  8.51581e-01  2.39814e-01 -1.43107e-01
       H  6.51359e-03  8.12416e-01 -7.06899e-01
       H -5.20459e-01 -1.01295e+00  5.86664e-01
       L  5.55916e+01 -1.62345e+00  1.18334e+00
       L -1.80369e+00  1.04064e+01  1.17045e+00
6
# CELL(abcABC):  459.05226   459.05226   459.05226    90.00000    90.00000    90.00000  Step:          22  Bead:       0 x_centroid{angstrom}  cell{atomic_unit}
       C -3.52372e-01 -7.76143e-02  4.62119e-02
       O  8.53393e-01  2.39379e-01 -1.41557e-01
       H  1.79043e-02  8.18958e-01 -7.09612e-01
       H -5.25867e-01 -1.02564e+00  5.85403e-01
       L  5.56083e+01 -1.44040e+00  1.21612e+00
       L -1.88921e+00  1.05960e+01  1.31784e+00
6
# CELL(abcABC):  459.05226   459.05226   459.05226    90.00000    90.00000    90.00000  Step:          23  Bead:       0 x_centroid{angstrom}  cell{atomic_unit}
       C -3.55270e-01 -7.65758e-02  4.41094e-02
       O  8.55350e-01  2.38949e-01 -1.39930e-01
       H  2.76724e-02  8.24097e-01 -7.10720e-01
       H -5.32184e-01 -1.03658e+00  5.85673e-01
       L  5.55972e+01 -1.20326e+00  1.17235e+00
       L -1.88031e+00  1.08368e+01  1.49123e+00
6
# CELL(abcABC):  459.05226   459.05226   459.05226    90.00000    90.00000    90.00000  Step:          24  Bead:       0 x_centroid{angstrom}  cell{atomic_unit}
       C -3.58558e-01 -7.54025e-02  4.18580e-02
       O  8.57939e-01  2.38303e-01 -1.38094e-01
       H  3.25844e-02  8.27670e-01 -7.09672e-01
       H -5.39004e-01 -1.04416e+00  5.82257e-01
       L  5.55808e+01 -9.35849e-01  1.09097e+00
       L -1.86970e+00  1.10754e+01  1.67067e+00
6
# CELL(abcABC):  459.05226   459.05226   459.05226    90.00000    90.00000    90.00000  Step:          25  Bead:       0 x_centroid{angstrom}  cell{atomic_unit}
       C -3.61921e-01 -7.43608e-02  3.95232e-02
       O  8.60965e-01  2.37600e-01 -1.36180e-01
       H  3.27629e-02  8.30425e-01 -7.07223e-01
       H -5.47155e-01 -1.04845e+00  5.77200e-01
       L  5.55523e+01 -6.61459e-01  9.92765e-01
       L -1.81759e+00  1.13111e+01  1.86768e+00
6
# CELL(abcABC):  459.05226   459.05226   459.05226    90.00000    90.00000    90.00000  Step:          26  Bead:       0 x_centroid{angstrom}  cell{atomic_unit}
       C -3.65265e-01 -7.31693e-02  3.71298e-02
       O  8.64079e-01  2.36722e-01 -1.34224e-01
       H  3.10919e-02  8.32216e-01 -7.03050e-01
       H -5.55078e-01 -1.05076e+00  5.70446e-01
       L  5.55232e+01 -3.80338e-01  9.01720e-01
       L -1.76052e+00  1.15059e+01  2.03935e+00
6
# CELL(abcABC):  459.05226   459.05226   459.05226    90.00000    90.00000    90.00000  Step:          27  Bead:       0 x_centroid{angstrom}  cell{atomic_unit}
       C -3.68679e-01 -7.21371e-02  3.46674e-02
       O  8.67104e-01  2.35830e-01 -1.32266e-01
       H  3.20434e-02  8.32351e-01 -6.98460e-01
       H -5.63390e-01 -1.04930e+00  5.64070e-01
       L  5.55211e+01 -5.80675e-02  8.22758e-01
       L -1.69230e+00  1.16802e+01  2.21433e+00
6
# CELL(abcABC):  459.05226   459.05226   459.05226    90.00000    90.00000    90.00000  Step:          28  Bead:       0 x_centroid{angstrom}  cell{atomic_unit}
       C -3.71797e-01 -7.14885e-02  3.26628e-02
       O  8.69467e-01  2.35106e-01 -1.30699e-01
       H  4.00848e-02  8.33417e-01 -6.92542e-01
       H -5.71844e-01 -1.04689e+00  5.57095e-01
       L  5.54834e+01  2.71194e-01  7.75183e-01
       L -1.55525e+00  1.18704e+01  2.39524e+00
6
# CELL(abcABC):  459.05226   459.05226   459.05226    90.00000    90.00000    90.00000  Step:          29  Bead:       0 x_centroid{angstrom}  cell{atomic_unit}
       C -3.74625e-01 -7.08289e-02  3.07636e-02
       O  8.71085e-01  2.34295e-01 -1.29282e-01
       H  5.51322e-02  8.35706e-01 -6.86703e-01
       H -5.78990e-01 -1.04444e+00  5.51321e-01
       L  5.54953e+01  5.86860e-01  7.28733e-01
       L -1.36087e+00  1.20391e+01  2.56278e+00
6
# CELL(abcABC):  459.05226   459.05226   459.05226    90.00000    90.00000    90.00000  Step:          30  Bead:       0 x_centroid{angstrom}  cell{atomic_unit}
       C -3.77400e-01 -7.02006e-02  2.86804e-02
       O  8.72346e-01  2.33372e-01 -1.27841e-01
       H  7.40492e-02  8.38458e-01 -6.79736e-01
       H -5.84952e-01 -1.04028e+00  5.46256e-01
       L  5.55251e+01  9.31016e-01  6.79233e-01
       L -1.24490e+00  1.21893e+01  2.71795e+00
6
# CELL(abcABC):  459.05226   459.05226   459.05226    90.00000    90.00000    90.00000  Step:          31  Bead:       0 x_centroid{angstrom}  cell{atomic_unit}
       C -3.80141e-01 -6.96408e-02  2.65000e-02
       O  8.73509e-01  2.32337e-01 -1.26150e-01
       H  9.34987e-02  8.41948e-01 -6.73726e-01
       H -5.90297e-01 -1.03429e+00  5.39334e-01
       L  5.56095e+01  1.29924e+00  6.33864e-01
       L -1.13019e+00  1.23145e+01  2.84097e+00
6
# CELL(abcABC):  459.05226   459.05226   459.05226    90.00000    90.00000    90.00000  Step:          32  Bead:       0 x_centroid{angstrom}  cell{atomic_unit}
       C -3.83316e-01 -6.92593e-02  2.42667e-02
       O  8.75219e-01  2.31198e-01 -1.24467e-01
       H  1.09903e-01  8.46990e-01 -6.67776e-01
       H -5.96079e-01 -1.02606e+00  5.33304e-01
       L  5.55779e+01  1.65757e+00  5.15573e-01
       L -9.80444e-01  1.24398e+01  2.93387e+00
6
# CELL(abcABC):  459.05226   459.05226   459.05226    90.00000    90.00000    90.00000  Step:          33  Bead:       0 x_centroid{angstrom}  cell{atomic_unit}
       C -3.86799e-01 -6.91791e-02  2.21103e-02
       O  8.77503e-01  2.30108e-01 -1.22824e-01
       H  1.21747e-01  8.53211e-01 -6.61703e-01
       H -6.02755e-01 -1.01614e+00  5.26880e-01
       L  5.54935e+01  1.94527e+00  3.90850e-01
       L -7.26409e-01  1.25410e+01  2.98029e+00
6
# CELL(abcABC):  459.05226   459.05226   459.05226    90.00000    90.00000    90.00000  Step:          34  Bead:       0 x_centroid{angstrom}  cell{atomic_unit}
       C -3.90595e-01 -6.90051e-02  1.99901e-02
       O  8.80377e-01  2.28815e-01 -1.21142e-01
       H  1.28111e-01  8.60462e-01 -6.55870e-01
       H -6.09575e-01 -1.00515e+00  5.19707e-01
       L  5.53381e+01  2.22364e+00  2.55441e-01
       L -4.72202e-01  1.26437e+01  2.95665e+00
6
# CELL(abcABC):  459.05226   459.05226   459.05226    90.00000    90.00000    90.00000  Step:          35  Bead:       0 x_centroid{angstrom}  cell{atomic_unit}
       C -3.94391e-01 -6.90885e-02  1.77078e-02
       O  8.83425e-01  2.27596e-01 -1.19371e-01
       H  1.31703e-01  8.68046e-01 -6.49250e-01
       H -6.16289e-01 -9.92615e-01  5.12266e-01
       L  5.50737e+01  2.46924e+00  1.07648e-01
       L -2.40409e-01  1.28061e+01  2.93837e+00
6
# CELL(abcABC):  459.05226   459.05226   459.05226    90.00000    90.00000    90.00000  Step:          36  Bead:       0 x_centroid{angstrom}  cell{atomic_unit}
       C -3.98423e-01 -6.92150e-02  1.55964e-02
       O  8.86559e-01  2.26464e-01 -1.17736e-01
       H  1.36188e-01  8.75429e-01 -6.42318e-01
       H -6.22433e-01 -9.80724e-01  5.04642e-01
       L  5.47531e+01  2.70696e+00 -6.02726e-02
       L  6.36687e-03  1.29443e+01  2.89937e+00
6
# CELL(abcABC):  459.05226   459.05226   459.05226    90.00000    90.00000    90.00000  Step:          37  Bead:       0 x_centroid{angstrom}  cell{atomic_unit}
       C -4.02322e-01 -6.92887e-02  1.35554e-02
       O  8.89416e-01  2.25378e-01 -1.16198e-01
       H  1.44222e-01  8.83648e-01 -6.35772e-01
       H -6.29293e-01 -9.70989e-01  4.98169e-01
       L  5.44211e+01  2.92172e+00 -2.63187e-01
       L  2.30013e-01  1.30385e+01  2.80557e+00
6
# CELL(abcABC):  459.05226   459.05226   459.05226    90.00000    90.00000    90.00000  Step:          38  Bead:       0 x_centroid{angstrom}  cell{atomic_unit}
       C -4.06066e-01 -6.91621e-02  1.14025e-02
       O  8.91700e-01  2.24381e-01 -1.14845e-01
       H  1.59187e-01  8.90975e-01 -6.28135e-01
       H -6.35843e-01 -9.64161e-01  4.94875e-01
       L  5.40855e+01  3.13135e+00 -4.42567e-01
       L  4.53976e-01  1.31034e+01  2.67489e+00
6
# CELL(abcABC):  459.05226   459.05226   459.05226    90.00000    90.00000    90.00000  Step:          39  Bead:       0 x_centroid{angstrom}  cell{atomic_unit}
       C -4.09572e-01 -6.89398e-02  9.04227e-03
       O  8.93526e-01  2.23610e-01 -1.13588e-01
       H  1.77715e-01  8.97832e-01 -6.20158e-01
       H -6.41522e-01 -9.61598e-01  4.95209e-01
       L  5.37168e+01  3.33571e+00 -5.41662e-01
       L  7.05682e-01  1.32300e+01  2.51581e+00
6
# CELL(abcABC):  459.05226   459.05226   459.05226    90.00000    90.00000    90.00000  Step:          40  Bead:       0 x_centroid{angstrom}  cell{atomic_unit}
       C -4.13249e-01 -6.85932e-02  6.71418e-03
       O  8.95388e-01  2.23050e-01 -1.12542e-01
       H  1.98975e-01  9.03565e-01 -6.10991e-01
       H -6.48430e-01 -9.62711e-01  4.97293e-01
       L  5.33075e+01  3.47361e+00 -5.94544e-01
       L  9.52799e-01  1.33421e+01  2.36011e+00
6
# CELL(abcABC):  459.05226   459.05226   459.05226    90.00000    90.00000    90.00000  Step:          41  Bead:       0 x_centroid{angstrom}  cell{atomic_unit}
       C -4.17041e-01 -6.81495e-02  4.14794e-03
       O  8.97360e-01  2.22658e-01 -1.11542e-01
       H  2.21093e-01  9.08610e-01 -6.00185e-01
       H -6.56579e-01 -9.66952e-01  5.01362e-01
       L  5.28691e+01  3.65734e+00 -6.73099e-01
       L  1.22134e+00  1.33972e+01  2.14538e+00
6
# CELL(abcABC):  459.05226   459.05226   459.05226    90.00000    90.00000    90.00000  Step:          42  Bead:       0 x_centroid{angstrom}  cell{atomic_unit}
       C -4.21399e-01 -6.74130e-02  1.59920e-03
       O  8.99961e-01  2.22387e-01 -1.10623e-01
       H  2.41115e-01  9.10914e-01 -5.89364e-01
       H -6.65841e-01 -9.73839e-01  5.06488e-01
       L  5.23887e+01  3.80839e+00 -7.41402e-01
       L  1.48066e+00  1.34315e+01  1.92069e+00
6
# CELL(abcABC):  459.05226   459.05226   459.05226    90.00000    90.00000    90.00000  Step:          43  Bead:       0 x_centroid{angstrom}  cell{atomic_unit}
       C -4.26447e-01 -6.65440e-02 -7.85875e-04
       O  9.03059e-01  2.22187e-01 -1.09901e-01
       H  2.61097e-01  9.10158e-01 -5.76990e-01
       H -6.74643e-01 -9.80346e-01  5.11247e-01
       L  5.18004e+01  3.96150e+00 -7.76580e-01
       L  1.71359e+00  1.34316e+01  1.61687e+00
6
# CELL(abcABC):  459.05226   459.05226   459.05226    90.00000    90.00000    90.00000  Step:          44  Bead:       0 x_centroid{angstrom}  cell{atomic_unit}
       C -4.32181e-01 -6.56270e-02 -3.06873e-03
       O  9.06829e-01  2.22043e-01 -1.09273e-01
       H  2.78867e-01  9.06401e-01 -5.63874e-01
       H -6.83695e-01 -9.85234e-01  5.15480e-01
       L  5.11326e+01  4.01070e+00 -6.60550e-01
       L  1.96357e+00  1.34019e+01  1.29568e+00
6
# CELL(abcABC):  459.05226   459.05226   459.05226    90.00000    90.00000    90.00000  Step:          45  Bead:       0 x_centroid{angstrom}  cell{atomic_unit}
       C -4.38796e-01 -6.52530e-02 -5.21880e-03
       O  9.11352e-01  2.22328e-01 -1.08710e-01
       H  2.95374e-01  9.02701e-01 -5.51243e-01
       H -6.92866e-01 -9.90470e-01  5.19638e-01
       L  5.04034e+01  4.00247e+00 -5.63566e-01
       L  2.11998e+00  1.33172e+01  9.93412e-01
6
# CELL(abcABC):  459.05226   459.05226   459.05226    90.00000    90.00000    90.00000  Step:          46  Bead:       0 x_centroid{angstrom}  cell{atomic_unit}
       C -4.46123e-01 -6.53265e-02 -7.66361e-03
       O  9.16389e-01  2.22767e-01 -1.07817e-01
       H  3.13756e-01  9.00445e-01 -5.38652e-01
       H -7.03562e-01 -9.94265e-01  5.22089e-01
       L  4.96524e+01  3.99816e+00 -4.59767e-01
       L  2.26400e+00  1.32399e+01  7.47254e-01
6
# CELL(abcABC):  459.05226   459.05226   459.05226    90.00000    90.00000    90.00000  Step:          47  Bead:       0 x_centroid{angstrom}  cell{atomic_unit}
       C -4.53694e-01 -6.55683e-02 -9.86398e-03
       O  9.21384e-01  2.23010e-01 -1.06980e-01
       H  3.33969e-01  9.01733e-01 -5.27902e-01
       H -7.12497e-01 -9.96456e-01  5.24362e-01
       L  4.88873e+01  3.95442e+00 -3.81195e-01
       L  2.40058e+00  1.31586e+01  5.00477e-01
6
# CELL(abcABC):  459.05226   459.05226   459.05226    90.00000    90.00000    90.00000  Step:          48  Bead:       0 x_centroid{angstrom}  cell{atomic_unit}
       C -4.61813e-01 -6.61980e-02 -1.20264e-02
       O  9.26455e-01  2.23277e-01 -1.06016e-01
       H  3.58052e-01  9.06386e-01 -5.19244e-01
       H -7.19941e-01 -9.97752e-01  5.26259e-01
       L  4.80294e+01  3.88649e+00 -2.77687e-01
       L  2.53465e+00  1.30646e+01  2.37715e-01
6
# CELL(abcABC):  459.05226   459.05226   459.05226    90.00000    90.00000    90.00000  Step:          49  Bead:       0 x_centroid{angstrom}  cell{atomic_unit}
       C -4.69849e-01 -6.73842e-02 -1.37559e-02
       O  9.31090e-01  2.23528e-01 -1.05122e-01
       H  3.87699e-01  9.15877e-01 -5.14059e-01
       H -7.26938e-01 -9.96975e-01  5.27601e-01
       L  4.70572e+01  3.77047e+00 -1.81909e-01
       L  2.66954e+00  1.29593e+01 -6.18667e-02
6
# CELL(abcABC):  459.05226   459.05226   459.05226    90.00000    90.00000    90.00000  Step:          50  Bead:       0 x_centroid{angstrom}  cell{atomic_unit}
       C -4.77644e-01 -6.88152e-02 -1.52074e-02
       O  9.34932e-01  2.23531e-01 -1.04318e-01
       H  4.23886e-01  9.30893e-01 -5.10279e-01
       H -7.30741e-01 -9.94797e-01  5.28493e-01
       L  4.60286e+01  3.52245e+00 -1.09602e-01
       L  2.78082e+00  1.28553e+01 -3.85565e-01
6
# CELL(abcABC):  459.05226   459.05226   459.05226    90.00000    90.00000    90.00000  Step:          51  Bead:       0 x_centroid{angstrom}  cell{atomic_unit}
       C -4.85238e-01 -7.07946e-02 -1.63152e-02
       O  9.37992e-01  2.23599e-01 -1.03515e-01
       H  4.66701e-01  9.49749e-01 -5.08719e-01
       H -7.31128e-01 -9.90936e-01  5.27544e-01
       L  4.49695e+01  3.24306e+00 -5.36636e-02
       L  2.91880e+00  1.27521e+01 -7.15157e-01
6
# CELL(abcABC):  459.05226   459.05226   459.05226    90.00000    90.00000    90.00000  Step:          52  Bead:       0 x_centroid{angstrom}  cell{atomic_unit}
       C -4.92981e-01 -7.29728e-02 -1.71442e-02
       O  9.40794e-01  2.23622e-01 -1.02792e-01
       H  5.13812e-01  9.70401e-01 -5.09415e-01
       H -7.29898e-01 -9.85751e-01  5.26798e-01
       L  4.38723e+01  2.96800e+00 -5.08988e-03
       L  2.99500e+00  1.25704e+01 -1.05326e+00
6
# CELL(abcABC):  459.05226   459.05226   459.05226    90.00000    90.00000    90.00000  Step:          53  Bead:       0 x_centroid{angstrom}  cell{atomic_unit}
       C -5.00472e-01 -7.52992e-02 -1.77897e-02
       O  9.43159e-01  2.23799e-01 -1.01964e-01
       H  5.63246e-01  9.90154e-01 -5.10404e-01
       H -7.27059e-01 -9.80306e-01  5.22488e-01
       L  4.27886e+01  2.66465e+00  6.31551e-02
       L  3.06744e+00  1.23461e+01 -1.40377e+00
6
# CELL(abcABC):  459.05226   459.05226   459.05226    90.00000    90.00000    90.00000  Step:          54  Bead:       0 x_centroid{angstrom}  cell{atomic_unit}
       C -5.08066e-01 -7.74470e-02 -1.82459e-02
       O  9.45413e-01  2.23948e-01 -1.01207e-01
       H  6.14583e-01  1.00910e+00 -5.12039e-01
       H -7.23040e-01 -9.75712e-01  5.17720e-01
       L  4.16244e+01  2.38567e+00  1.35717e-01
       L  3.05816e+00  1.20655e+01 -1.81094e+00
6
# CELL(abcABC):  459.05226   459.05226   459.05226    90.00000    90.00000    90.00000  Step:          55  Bead:       0 x_centroid{angstrom}  cell{atomic_unit}
       C -5.16175e-01 -7.95440e-02 -1.86900e-02
       O  9.47837e-01  2.24345e-01 -1.00508e-01
       H  6.67739e-01  1.02570e+00 -5.13452e-01
       H -7.17327e-01 -9.73292e-01  5.13503e-01
       L  4.04141e+01  2.13101e+00  2.14796e-01
       L  2.95572e+00  1.17187e+01 -2.19532e+00
6
# CELL(abcABC):  459.05226   459.05226   459.05226    90.00000    90.00000    90.00000  Step:          56  Bead:       0 x_centroid{angstrom}  cell{atomic_unit}
       C -5.24672e-01 -8.15780e-02 -1.93005e-02
       O  9.50571e-01  2.25105e-01 -9.96588e-02
       H  7.20897e-01  1.03935e+00 -5.14820e-01
       H -7.11879e-01 -9.74429e-01  5.08803e-01
       L  3.91873e+01  1.89133e+00  2.92021e-01
       L  2.78756e+00  1.13254e+01 -2.53702e+00
6
# CELL(abcABC):  459.05226   459.05226   459.05226    90.00000    90.00000    90.00000  Step:          57  Bead:       0 x_centroid{angstrom}  cell{atomic_unit}
       C -5.33189e-01 -8.32362e-02 -1.98287e-02
       O  9.53459e-01  2.25896e-01 -9.88722e-02
       H  7.72152e-01  1.04932e+00 -5.16416e-01
       H -7.06692e-01 -9.76846e-01  5.04351e-01
       L  3.78836e+01  1.68373e+00  3.38815e-01
       L  2.63103e+00  1.08862e+01 -2.84669e+00
6
# CELL(abcABC):  459.05226   459.05226   459.05226    90.00000    90.00000    90.00000  Step:          58  Bead:       0 x_centroid{angstrom}  cell{atomic_unit}
       C -5.42017e-01 -8.48576e-02 -2.02984e-02
       O  9.56661e-01  2.27024e-01 -9.80973e-02
       H  8.21784e-01  1.05581e+00 -5.18758e-01
       H -7.01069e-01 -9.81508e-01  5.00106e-01
       L  3.64240e+01  1.42618e+00  3.94163e-01
       L  2.47076e+00  1.03894e+01 -3.11635e+00
6
# CELL(abcABC):  459.05226   459.05226   459.05226    90.00000    90.00000    90.00000  Step:          59  Bead:       0 x_centroid{angstrom}  cell{atomic_unit}
       C -5.51356e-01 -8.61828e-02 -2.07256e-02
       O  9.60369e-01  2.28236e-01 -9.72795e-02
       H  8.67659e-01  1.05922e+00 -5.23300e-01
       H -6.93592e-01 -9.87925e-01  4.96886e-01
       L  3.49092e+01  1.19322e+00  4.32735e-01
       L  2.26945e+00  9.82179e+00 -3.38989e+00
6
# CELL(abcABC):  459.05226   459.05226   459.05226    90.00000    90.00000    90.00000  Step:          60  Bead:       0 x_centroid{angstrom}  cell{atomic_unit}
       C -5.60682e-01 -8.69741e-02 -2.14622e-02
       O  9.64134e-01  2.29353e-01 -9.62153e-02
       H  9.11059e-01  1.05866e+00 -5.28592e-01
       H -6.84649e-01 -9.95207e-01  4.94159e-01
       L  3.33097e+01  9.51114e-01  4.78308e-01
       L  2.06732e+00  9.19513e+00 -3.61361e+00
6
# CELL(abcABC):  459.05226   459.05226   459.05226    90.00000    90.00000    90.00000  Step:          61  Bead:       0 x_centroid{angstrom}  cell{atomic_unit}
       C -5.69706e-01 -8.72672e-02 -2.22441e-02
       O  9.67803e-01  2.30359e-01 -9.51465e-02
       H  9.52154e-01  1.05568e+00 -5.34172e-01
       H -6.75422e-01 -1.00420e+00  4.92177e-01
       L  3.16245e+01  7.09427e-01  5.55603e-01
       L  1.86885e+00  8.54610e+00 -3.84766e+00
6
# CELL(abcABC):  459.05226   459.05226   459.05226    90.00000    90.00000    90.00000  Step:          62  Bead:       0 x_centroid{angstrom}  cell{atomic_unit}
       C -5.78432e-01 -8.69680e-02 -2.31881e-02
       O  9.71340e-01  2.31189e-01 -9.39834e-02
       H  9.90581e-01  1.05204e+00 -5.39414e-01
       H -6.64944e-01 -1.01679e+00  4.90320e-01
       L  2.98397e+01  4.46330e-01  5.47607e-01
       L  1.70348e+00  7.84962e+00 -4.05286e+00
6
# CELL(abcABC):  459.05226   459.05226   459.05226    90.00000    90.00000    90.00000  Step:          63  Bead:       0 x_centroid{angstrom}  cell{atomic_unit}
       C -5.86436e-01 -8.61829e-02 -2.40898e-02
       O  9.74544e-01  2.31716e-01 -9.28151e-02
       H  1.02590e+00  1.04822e+00 -5.44830e-01
       H -6.54724e-01 -1.03012e+00  4.88040e-01
       L  2.81021e+01  1.78738e-01  5.37076e-01
       L  1.54337e+00  7.07425e+00 -4.23143e+00
6
# CELL(abcABC):  459.05226   459.05226   459.05226    90.00000    90.00000    90.00000  Step:          64  Bead:       0 x_centroid{angstrom}  cell{atomic_unit}
       C -5.93571e-01 -8.51039e-02 -2.54120e-02
       O  9.77124e-01  2.32042e-01 -9.12522e-02
       H  1.05969e+00  1.04474e+00 -5.51120e-01
       H -6.43394e-01 -1.04407e+00  4.85351e-01
       L  2.63267e+01 -8.40710e-02  5.49200e-01
       L  1.38908e+00  6.24638e+00 -4.38041e+00
6
# CELL(abcABC):  459.05226   459.05226   459.05226    90.00000    90.00000    90.00000  Step:          65  Bead:       0 x_centroid{angstrom}  cell{atomic_unit}
       C -5.99662e-01 -8.35904e-02 -2.68919e-02
       O  9.78959e-01  2.31897e-01 -8.95114e-02
       H  1.09132e+00  1.04195e+00 -5.58252e-01
       H -6.30483e-01 -1.05644e+00  4.82529e-01
       L  2.45459e+01 -3.30222e-01  6.08042e-01
       L  1.18231e+00  5.42798e+00 -4.52203e+00
6
# CELL(abcABC):  459.05226   459.05226   459.05226    90.00000    90.00000    90.00000  Step:          66  Bead:       0 x_centroid{angstrom}  cell{atomic_unit}
       C -6.05015e-01 -8.18309e-02 -2.82464e-02