6
# CELL(abcABC):  459.05226   459.05226   459.05226    90.00000    90.00000    90.00000  Step:           0  Bead:       0 x_centroid{angstrom}  cell{atomic_unit}
       C -3.39887e-01 -1.13437e-01  8.06659e-02
       O  8.43483e-01  2.62672e-01 -1.81512e-01
       H -7.35799e-02  8.16467e-01 -6.61432e-01
       H -4.30016e-01 -9.65701e-01  7.62278e-01
       L  6.13458e+01  0.00000e+00  0.00000e+00
       L  0.00000e+00  8.59064e+00  0.00000e+00
6
# CELL(abcABC):  459.05226   459.05226   459.05226    90.00000    90.00000    90.00000  Step:           1  Bead:       0 x_centroid{angstrom}  cell{atomic_unit}
       C -3.39626e-01 -1.10490e-01  8.26283e-02
       O  8.42549e-01  2.61766e-01 -1.82776e-01
       H -6.40253e-02  8.17576e-01 -6.64833e-01
       H -4.27718e-01 -9.87633e-01  7.61618e-01
       L  6.11887e+01  6.35655e-02  6.99230e-01
       L -8.54561e-02  8.66090e+00  6.51282e-01
6
# CELL(abcABC):  459.05226   459.05226   459.05226    90.00000    90.00000    90.00000  Step:           2  Bead:       0 x_centroid{angstrom}  cell{atomic_unit}
       C -3.39254e-01 -1.07466e-01  8.48077e-02
       O  8.41906e-01  2.60897e-01 -1.84125e-01
       H -5.94499e-02  8.14647e-01 -6.67610e-01
       H -4.26407e-01 -1.00699e+00  7.59069e-01
       L  6.10246e+01  1.49844e-01  1.45899e+00
       L -1.32557e-01  8.65560e+00  1.31322e+00
6
# CELL(abcABC):  459.05226   459.05226   459.05226    90.00000    90.00000    90.00000  Step:           3  Bead:       0 x_centroid{angstrom}  cell{atomic_unit}
       C -3.39224e-01 -1.04506e-01  8.71454e-02
       O  8.42139e-01  2.60035e-01 -1.85367e-01
       H -6.31494e-02  8.09367e-01 -6.70820e-01
       H -4.26657e-01 -1.02334e+00  7.53387e-01
       L  6.08152e+01  2.42217e-01  2.16835e+00
       L -1.14283e-01  8.64468e+00  1.98224e+00
6
# CELL(abcABC):  459.05226   459.05226   459.05226    90.00000    90.00000    90.00000  Step:           4  Bead:       0 x_centroid{angstrom}  cell{atomic_unit}
       C -3.39459e-01 -1.02020e-01  8.96625e-02
       O  8.42986e-01  2.59261e-01 -1.86610e-01
       H -7.21480e-02  8.02243e-01 -6.73282e-01
       H -4.28164e-01 -1.03359e+00  7.44854e-01
       L  6.05222e+01  3.34009e-01  2.81370e+00
       L -7.86459e-02  8.62291e+00  2.65929e+00
6
# CELL(abcABC):  459.05226   459.05226   459.05226    90.00000    90.00000    90.00000  Step:           5  Bead:       0 x_centroid{angstrom}  cell{atomic_unit}
       C -3.40078e-01 -9.95682e-02  9.22956e-02
       O  8.44306e-01  2.58223e-01 -1.87726e-01
       H -8.34402e-02  7.95571e-01 -6.76682e-01
       H -4.30307e-01 -1.03968e+00  7.33941e-01
       L  6.02328e+01  4.74778e-01  3.39775e+00
       L -4.00861e-02  8.53695e+00  3.28245e+00
6
# CELL(abcABC):  459.05226   459.05226   459.05226    90.00000    90.00000    90.00000  Step:           6  Bead:       0 x_centroid{angstrom}  cell{atomic_unit}
       C -3.40556e-01 -9.70809e-02  9.46245e-02
       O  8.45184e-01  2.56868e-01 -1.88674e-01
       H -9.08077e-02  7.92148e-01 -6.79435e-01
       H -4.31074e-01 -1.04447e+00  7.23425e-01
       L  5.99356e+01  6.47237e-01  3.88692e+00
       L  3.42059e-02  8.50186e+00  3.82119e+00
6
# CELL(abcABC):  459.05226   459.05226   459.05226    90.00000    90.00000    90.00000  Step:           7  Bead:       0 x_centroid{angstrom}  cell{atomic_unit}
       C -3.40807e-01 -9.46577e-02  9.74259e-02
       O  8.45425e-01  2.55259e-01 -1.89805e-01
       H -9.16516e-02  7.91628e-01 -6.83807e-01
       H -4.30943e-01 -1.04735e+00  7.11836e-01
       L  5.97238e+01  8.07586e-01  4.38012e+00
       L  4.39668e-02  8.46620e+00  4.31770e+00
6
# CELL(abcABC):  459.05226   459.05226   459.05226    90.00000    90.00000    90.00000  Step:           8  Bead:       0 x_centroid{angstrom}  cell{atomic_unit}
       C -3.40246e-01 -9.23560e-02  1.00067e-01
       O  8.44417e-01  2.53403e-01 -1.90875e-01
       H -8.40878e-02  7.96486e-01 -6.88701e-01
       H -4.29166e-01 -1.05031e+00  7.01737e-01
       L  5.96559e+01  1.01544e+00  4.85364e+00
       L  5.89608e-02  8.49144e+00  4.76196e+00
6
# CELL(abcABC):  459.05226   459.05226   459.05226    90.00000    90.00000    90.00000  Step:           9  Bead:       0 x_centroid{angstrom}  cell{atomic_unit}
       C -3.39430e-01 -9.03036e-02  1.02709e-01
       O  8.42684e-01  2.51354e-01 -1.92027e-01
       H -7.02186e-02  8.05373e-01 -6.93604e-01
       H -4.25242e-01 -1.05122e+00  6.93019e-01
       L  5.95979e+01  1.13341e+00  5.28485e+00
       L  1.14691e-01  8.54666e+00  5.13372e+00
6
# CELL(abcABC):  459.05226   459.05226   459.05226    90.00000    90.00000    90.00000  Step:          10  Bead:       0 x_centroid{angstrom}  cell{atomic_unit}
       C -3.39004e-01 -8.83936e-02  1.05320e-01
       O  8.41375e-01  2.49168e-01 -1.93237e-01
       H -5.85235e-02  8.15243e-01 -6.97676e-01
       H -4.21156e-01 -1.04926e+00  6.84795e-01
       L  5.94496e+01  1.25692e+00  5.68838e+00
       L  1.10775e-01  8.64467e+00  5.44218e+00
6
# CELL(abcABC):  459.05226   459.05226   459.05226    90.00000    90.00000    90.00000  Step:          11  Bead:       0 x_centroid{angstrom}  cell{atomic_unit}
       C -3.38914e-01 -8.67439e-02  1.07781e-01
       O  8.40802e-01  2.47045e-01 -1.94254e-01
       H -5.36563e-02  8.23750e-01 -7.00700e-01
       H -4.17938e-01 -1.04386e+00  6.74268e-01
       L  5.92948e+01  1.40526e+00  6.08756e+00
       L  1.42924e-01  8.72949e+00  5.73161e+00
6
# CELL(abcABC):  459.05226   459.05226   459.05226    90.00000    90.00000    90.00000  Step:          12  Bead:       0 x_centroid{angstrom}  cell{atomic_unit}
       C -3.39187e-01 -8.50384e-02  1.10301e-01
       O  8.41141e-01  2.44828e-01 -1.95501e-01
       H -5.66287e-02  8.30825e-01 -7.00630e-01
       H -4.16971e-01 -1.03622e+00  6.63673e-01
       L  5.90730e+01  1.58804e+00  6.41615e+00
       L  1.45227e-01  8.81902e+00  5.93493e+00
6
# CELL(abcABC):  459.05226   459.05226   459.05226    90.00000    90.00000    90.00000  Step:          13  Bead:       0 x_centroid{angstrom}  cell{atomic_unit}
       C -3.40198e-01 -8.35673e-02  1.12739e-01
       O  8.42597e-01  2.42769e-01 -1.96811e-01
       H -6.62820e-02  8.35985e-01 -6.98465e-01
       H -4.18269e-01 -1.02636e+00  6.53041e-01
       L  5.88001e+01  1.83855e+00  6.61062e+00
       L  2.07586e-01  8.84741e+00  6.09396e+00
6
# CELL(abcABC):  459.05226   459.05226   459.05226    90.00000    90.00000    90.00000  Step:          14  Bead:       0 x_centroid{angstrom}  cell{atomic_unit}
       C -3.41023e-01 -8.23346e-02  1.15330e-01
       O  8.43919e-01  2.40938e-01 -1.98448e-01
       H -7.60513e-02  8.40454e-01 -6.94113e-01
       H -4.19550e-01 -1.01662e+00  6.43721e-01
       L  5.85372e+01  2.07643e+00  6.70298e+00
       L  2.81846e-01  8.88989e+00  6.15326e+00
6
# CELL(abcABC):  459.05226   459.05226   459.05226    90.00000    90.00000    90.00000  Step:          15  Bead:       0 x_centroid{angstrom}  cell{atomic_unit}
       C -3.41316e-01 -8.08585e-02  1.17288e-01
       O  8.44586e-01  2.39137e-01 -1.99928e-01
       H -8.22938e-02  8.44071e-01 -6.86856e-01
       H -4.20366e-01 -1.00934e+00  6.36579e-01
       L  5.83261e+01  2.29637e+00  6.81728e+00
       L  4.27698e-01  8.87769e+00  6.14798e+00
6
# CELL(abcABC):  459.05226   459.05226   459.05226    90.00000    90.00000    90.00000  Step:          16  Bead:       0 x_centroid{angstrom}  cell{atomic_unit}
       C -3.41204e-01 -7.94168e-02  1.18994e-01
       O  8.44288e-01  2.37641e-01 -2.01366e-01
       H -8.00451e-02  8.47503e-01 -6.79839e-01
       H -4.19216e-01 -1.00633e+00  6.32078e-01
       L  5.81777e+01  2.48437e+00  6.83395e+00
       L  5.58956e-01  8.90455e+00  6.07906e+00
6
# CELL(abcABC):  459.05226   459.05226   459.05226    90.00000    90.00000    90.00000  Step:          17  Bead:       0 x_centroid{angstrom}  cell{atomic_unit}
       C -3.40730e-01 -7.72403e-02  1.20537e-01
       O  8.43102e-01  2.35828e-01 -2.02909e-01
       H -7.05352e-02  8.51090e-01 -6.72245e-01
       H -4.15591e-01 -1.00717e+00  6.30699e-01
       L  5.81013e+01  2.64443e+00  6.75643e+00
       L  7.06087e-01  8.91761e+00  5.94965e+00
6
# CELL(abcABC):  459.05226   459.05226   459.05226    90.00000    90.00000    90.00000  Step:          18  Bead:       0 x_centroid{angstrom}  cell{atomic_unit}
       C -3.40278e-01 -7.45340e-02  1.21858e-01
       O  8.41673e-01  2.33948e-01 -2.04557e-01
       H -5.74555e-02  8.53312e-01 -6.64589e-01
       H -4.11442e-01 -1.01188e+00  6.33653e-01
       L  5.80793e+01  2.78610e+00  6.59435e+00
       L  8.55561e-01  8.93130e+00  5.77018e+00
6
# CELL(abcABC):  459.05226   459.05226   459.05226    90.00000    90.00000    90.00000  Step:          19  Bead:       0 x_centroid{angstrom}  cell{atomic_unit}
       C -3.39955e-01 -7.19663e-02  1.22728e-01
       O  8.40544e-01  2.32228e-01 -2.06006e-01
       H -4.53219e-02  8.56499e-01 -6.56075e-01
       H -4.09569e-01 -1.01840e+00  6.37999e-01
       L  5.80747e+01  2.85017e+00  6.37382e+00
       L  9.85143e-01  8.94026e+00  5.59490e+00
6
# CELL(abcABC):  459.05226   459.05226   459.05226    90.00000    90.00000    90.00000  Step:          20  Bead:       0 x_centroid{angstrom}  cell{atomic_unit}
       C -3.40276e-01 -6.90092e-02  1.23587e-01
       O  8.40511e-01  2.30278e-01 -2.07649e-01
       H -3.96537e-02  8.58594e-01 -6.45204e-01
       H -4.10963e-01 -1.02479e+00  6.43239e-01
       L  5.80095e+01  2.85807e+00  6.11508e+00
       L  1.18893e+00  8.94626e+00  5.33499e+00
6
# CELL(abcABC):  459.05226   459.05226   459.05226    90.00000    90.00000    90.00000  Step:          21  Bead:       0 x_centroid{angstrom}  cell{atomic_unit}
       C -3.40891e-01 -6.63939e-02  1.24293e-01
       O  8.41371e-01  2.28632e-01 -2.09130e-01
       H -4.24420e-02  8.59259e-01 -6.33148e-01
       H -4.14544e-01 -1.03047e+00  6.46618e-01
       L  5.79037e+01  2.85497e+00  5.82934e+00
       L  1.39197e+00  8.89974e+00  5.00724e+00
6
# CELL(abcABC):  459.05226   459.05226   459.05226    90.00000    90.00000    90.00000  Step:          22  Bead:       0 x_centroid{angstrom}  cell{atomic_unit}
       C -3.42241e-01 -6.40784e-02  1.24949e-01
       O  8.43241e-01  2.27259e-01 -2.10648e-01
       H -5.01351e-02  8.57814e-01 -6.20083e-01
       H -4.20496e-01 -1.03477e+00  6.50233e-01
       L  5.78228e+01  2.84855e+00  5.49007e+00
       L  1.54924e+00  8.81701e+00  4.62665e+00
6
# CELL(abcABC):  459.05226   459.05226   459.05226    90.00000    90.00000    90.00000  Step:          23  Bead:       0 x_centroid{angstrom}  cell{atomic_unit}
       C -3.43681e-01 -6.18341e-02  1.26102e-01
       O  8.45510e-01  2.25767e-01 -2.12567e-01
       H -6.15231e-02  8.57127e-01 -6.06074e-01
       H -4.27965e-01 -1.03709e+00  6.53424e-01
       L  5.76956e+01  2.83935e+00  5.10019e+00
       L  1.68427e+00  8.71561e+00  4.14139e+00
6
# CELL(abcABC):  459.05226   459.05226   459.05226    90.00000    90.00000    90.00000  Step:          24  Bead:       0 x_centroid{angstrom}  cell{atomic_unit}
       C -3.45068e-01 -5.98018e-02  1.27218e-01
       O  8.47402e-01  2.24300e-01 -2.14451e-01
       H -6.75332e-02  8.57431e-01 -5.93653e-01
       H -4.35466e-01 -1.03824e+00  6.58117e-01
       L  5.75817e+01  2.78772e+00  4.67040e+00
       L  1.79740e+00  8.63545e+00  3.60199e+00
6
# CELL(abcABC):  459.05226   459.05226   459.05226    90.00000    90.00000    90.00000  Step:          25  Bead:       0 x_centroid{angstrom}  cell{atomic_unit}
       C -3.46088e-01 -5.79094e-02  1.28375e-01
       O  8.48560e-01  2.22812e-01 -2.16277e-01
       H -6.69085e-02  8.60087e-01 -5.83601e-01
       H -4.42342e-01 -1.03978e+00  6.63856e-01
       L  5.75857e+01  2.78313e+00  4.16079e+00
       L  1.84755e+00  8.55906e+00  3.02970e+00
6
# CELL(abcABC):  459.05226   459.05226   459.05226    90.00000    90.00000    90.00000  Step:          26  Bead:       0 x_centroid{angstrom}  cell{atomic_unit}
       C -3.46543e-01 -5.63855e-02  1.29526e-01
       O  8.48559e-01  2.21357e-01 -2.18037e-01
       H -5.67162e-02  8.65829e-01 -5.75827e-01
       H -4.47170e-01 -1.04054e+00  6.70917e-01
       L  5.76878e+01  2.74108e+00  3.66811e+00
       L  1.88919e+00  8.51856e+00  2.38988e+00
6
# CELL(abcABC):  459.05226   459.05226   459.05226    90.00000    90.00000    90.00000  Step:          27  Bead:       0 x_centroid{angstrom}  cell{atomic_unit}
       C -3.46870e-01 -5.51420e-02  1.30695e-01
       O  8.47986e-01  2.20076e-01 -2.19697e-01
       H -4.07116e-02  8.71770e-01 -5.68849e-01
       H -4.50267e-01 -1.04094e+00  6.76993e-01
       L  5.78327e+01  2.67929e+00  3.14803e+00
       L  1.89563e+00  8.52360e+00  1.73320e+00
6
# CELL(abcABC):  459.05226   459.05226   459.05226    90.00000    90.00000    90.00000  Step:          28  Bead:       0 x_centroid{angstrom}  cell{atomic_unit}
       C -3.47243e-01 -5.43541e-02  1.31986e-01
       O  8.47353e-01  2.19044e-01 -2.21364e-01
       H -2.35208e-02  8.77004e-01 -5.62684e-01
       H -4.53019e-01 -1.03913e+00  6.82573e-01
       L  5.79505e+01  2.61158e+00  2.58288e+00
       L  1.87889e+00  8.50664e+00  1.09519e+00
6
# CELL(abcABC):  459.05226   459.05226   459.05226    90.00000    90.00000    90.00000  Step:          29  Bead:       0 x_centroid{angstrom}  cell{atomic_unit}
       C -3.47973e-01 -5.40245e-02  1.33776e-01
       O  8.47462e-01  2.18189e-01 -2.23306e-01
       H -1.20159e-02  8.81761e-01 -5.56027e-01
       H -4.57581e-01 -1.03424e+00  6.86119e-01
       L  5.80507e+01  2.58086e+00  1.97099e+00
       L  1.81821e+00  8.51661e+00  4.10527e-01
6
# CELL(abcABC):  459.05226   459.05226   459.05226    90.00000    90.00000    90.00000  Step:          30  Bead:       0 x_centroid{angstrom}  cell{atomic_unit}
       C -3.49187e-01 -5.38907e-02  1.35717e-01
       O  8.48421e-01  2.17249e-01 -2.25242e-01
       H -7.74881e-03  8.86344e-01 -5.49003e-01
       H -4.62628e-01 -1.02543e+00  6.87394e-01
       L  5.81257e+01  2.47715e+00  1.33669e+00
       L  1.76737e+00  8.49095e+00 -2.59214e-01
6
# CELL(abcABC):  459.05226   459.05226   459.05226    90.00000    90.00000    90.00000  Step:          31  Bead:       0 x_centroid{angstrom}  cell{atomic_unit}
       C -3.51133e-01 -5.40202e-02  1.37863e-01
       O  8.50420e-01  2.16307e-01 -2.27261e-01
       H -9.63889e-03  8.90747e-01 -5.40703e-01
       H -4.69234e-01 -1.01320e+00  6.86321e-01
       L  5.81366e+01  2.32002e+00  6.68146e-01
       L  1.70833e+00  8.41336e+00 -9.66914e-01
6
# CELL(abcABC):  459.05226   459.05226   459.05226    90.00000    90.00000    90.00000  Step:          32  Bead:       0 x_centroid{angstrom}  cell{atomic_unit}
       C -3.53100e-01 -5.48673e-02  1.40026e-01
       O  8.52641e-01  2.15702e-01 -2.29238e-01
       H -1.40731e-02  8.95453e-01 -5.32078e-01
       H -4.76586e-01 -9.98052e-01  6.84063e-01
       L  5.81352e+01  2.12947e+00  2.06670e-02
       L  1.64320e+00  8.32238e+00 -1.70526e+00
6
# CELL(abcABC):  459.05226   459.05226   459.05226    90.00000    90.00000    90.00000  Step:          33  Bead:       0 x_centroid{angstrom}  cell{atomic_unit}
       C -3.55023e-01 -5.58884e-02  1.42516e-01
       O  8.54640e-01  2.15172e-01 -2.31413e-01
       H -1.62338e-02  9.00453e-01 -5.23675e-01
       H -4.83235e-01 -9.82358e-01  6.81300e-01
       L  5.81458e+01  1.95886e+00 -6.68342e-01
       L  1.59972e+00  8.27842e+00 -2.45122e+00
6
# CELL(abcABC):  459.05226   459.05226   459.05226    90.00000    90.00000    90.00000  Step:          34  Bead:       0 x_centroid{angstrom}  cell{atomic_unit}
       C -3.56728e-01 -5.67651e-02  1.44977e-01
       O  8.55952e-01  2.14522e-01 -2.33575e-01
       H -1.13744e-02  9.06408e-01 -5.16883e-01
       H -4.88580e-01 -9.67444e-01  6.80283e-01
       L  5.81767e+01  1.80085e+00 -1.37147e+00
       L  1.53639e+00  8.24470e+00 -3.18689e+00
6
# CELL(abcABC):  459.05226   459.05226   459.05226    90.00000    90.00000    90.00000  Step:          35  Bead:       0 x_centroid{angstrom}  cell{atomic_unit}
       C -3.58071e-01 -5.79985e-02  1.47215e-01
       O  8.56509e-01  2.14157e-01 -2.35563e-01
       H  3.40660e-04  9.14690e-01 -5.10506e-01
       H -4.93148e-01 -9.55104e-01  6.79601e-01
       L  5.82729e+01  1.58542e+00 -2.11934e+00
       L  1.49920e+00  8.22164e+00 -3.92063e+00
6
# CELL(abcABC):  459.05226   459.05226   459.05226    90.00000    90.00000    90.00000  Step:          36  Bead:       0 x_centroid{angstrom}  cell{atomic_unit}
       C -3.58932e-01 -5.89249e-02  1.49045e-01
       O  8.56265e-01  2.13777e-01 -2.37406e-01
       H  1.80720e-02  9.24690e-01 -5.04368e-01
       H -4.96813e-01 -9.47899e-01  6.81676e-01
       L  5.84183e+01  1.36590e+00 -2.84535e+00
       L  1.45691e+00  8.19801e+00 -4.61510e+00
6
# CELL(abcABC):  459.05226   459.05226   459.05226    90.00000    90.00000    90.00000  Step:          37  Bead:       0 x_centroid{angstrom}  cell{atomic_unit}
       C -3.59770e-01 -5.92633e-02  1.50846e-01
       O  8.56032e-01  2.13210e-01 -2.39373e-01
       H  3.60829e-02  9.34209e-01 -4.97591e-01
       H -5.01182e-01 -9.44239e-01  6.85410e-01
       L  5.85288e+01  1.13928e+00 -3.54005e+00
       L  1.43106e+00  8.13988e+00 -5.30028e+00
6
# CELL(abcABC):  459.05226   459.05226   459.05226    90.00000    90.00000    90.00000  Step:          38  Bead:       0 x_centroid{angstrom}  cell{atomic_unit}
       C -3.60861e-01 -5.92388e-02  1.52621e-01
       O  8.56227e-01  2.12523e-01 -2.41372e-01
       H  5.12089e-02  9.44269e-01 -4.92106e-01
       H -5.06423e-01 -9.43496e-01  6.91190e-01
       L  5.86009e+01  8.64460e-01 -4.15605e+00
       L  1.36879e+00  8.06544e+00 -5.91560e+00
6
# CELL(abcABC):  459.05226   459.05226   459.05226    90.00000    90.00000    90.00000  Step:          39  Bead:       0 x_centroid{angstrom}  cell{atomic_unit}
       C -3.62156e-01 -5.90537e-02  1.54246e-01
       O  8.57217e-01  2.11899e-01 -2.43406e-01
       H  5.82582e-02  9.53692e-01 -4.85005e-01
       H -5.13763e-01 -9.45016e-01  6.97626e-01
       L  5.86540e+01  5.84481e-01 -4.72097e+00
       L  1.34156e+00  7.98230e+00 -6.48994e+00
6
# CELL(abcABC):  459.05226   459.05226   459.05226    90.00000    90.00000    90.00000  Step:          40  Bead:       0 x_centroid{angstrom}  cell{atomic_unit}
       C -3.64018e-01 -5.89038e-02  1.55858e-01
       O  8.59180e-01  2.11518e-01 -2.45481e-01
       H  5.85280e-02  9.60230e-01 -4.77355e-01
       H -5.22962e-01 -9.47086e-01  7.04268e-01
       L  5.85971e+01  3.09290e-01 -5.22743e+00
       L  1.33325e+00  7.87133e+00 -7.00105e+00
6
# CELL(abcABC):  459.05226   459.05226   459.05226    90.00000    90.00000    90.00000  Step:          41  Bead:       0 x_centroid{angstrom}  cell{atomic_unit}
       C -3.66694e-01 -5.81461e-02  1.57303e-01
       O  8.62015e-01  2.10981e-01 -2.47631e-01
       H  5.50840e-02  9.63439e-01 -4.67005e-01
       H -5.32585e-01 -9.50638e-01  7.11313e-01
       L  5.85223e+01  1.13366e-01 -5.72044e+00
       L  1.31519e+00  7.76565e+00 -7.41701e+00
6
# CELL(abcABC):  459.05226   459.05226   459.05226    90.00000    90.00000    90.00000  Step:          42  Bead:       0 x_centroid{angstrom}  cell{atomic_unit}
       C -3.69469e-01 -5.71881e-02  1.58824e-01
       O  8.64977e-01  2.10651e-01 -2.49829e-01
       H  5.07100e-02  9.63943e-01 -4.56539e-01
       H -5.42046e-01 -9.57149e-01  7.18083e-01
       L  5.83241e+01 -9.11870e-02 -6.17794e+00
       L  1.30530e+00  7.66837e+00 -7.83180e+00
6
# CELL(abcABC):  459.05226   459.05226   459.05226    90.00000    90.00000    90.00000  Step:          43  Bead:       0 x_centroid{angstrom}  cell{atomic_unit}
       C -3.72215e-01 -5.60749e-02  1.60330e-01
       O  8.67846e-01  2.10532e-01 -2.51980e-01
       H  4.84983e-02  9.60655e-01 -4.46135e-01
       H -5.52472e-01 -9.65080e-01  7.24303e-01
       L  5.79822e+01 -2.58954e-01 -6.59105e+00
       L  1.30371e+00  7.53094e+00 -8.20742e+00
6
# CELL(abcABC):  459.05226   459.05226   459.05226    90.00000    90.00000    90.00000  Step:          44  Bead:       0 x_centroid{angstrom}  cell{atomic_unit}
       C -3.74867e-01 -5.50559e-02  1.61574e-01
       O  8.70199e-01  2.10622e-01 -2.53908e-01
       H  5.17576e-02  9.55049e-01 -4.37180e-01
       H -5.61322e-01 -9.72857e-01  7.31457e-01
       L  5.77079e+01 -4.37798e-01 -6.90791e+00
       L  1.28860e+00  7.38117e+00 -8.47878e+00
6
# CELL(abcABC):  459.05226   459.05226   459.05226    90.00000    90.00000    90.00000  Step:          45  Bead:       0 x_centroid{angstrom}  cell{atomic_unit}
       C -3.76708e-01 -5.42545e-02  1.62962e-01
       O  8.71400e-01  2.10794e-01 -2.55791e-01
       H  6.18765e-02  9.50098e-01 -4.30992e-01
       H -5.68434e-01 -9.80014e-01  7.38859e-01
       L  5.74744e+01 -6.26901e-01 -7.14449e+00
       L  1.26703e+00  7.26049e+00 -8.70397e+00
6
# CELL(abcABC):  459.05226   459.05226   459.05226    90.00000    90.00000    90.00000  Step:          46  Bead:       0 x_centroid{angstrom}  cell{atomic_unit}
       C -3.78201e-01 -5.37646e-02  1.64654e-01
       O  8.71771e-01  2.11057e-01 -2.57612e-01
       H  7.84159e-02  9.46342e-01 -4.28070e-01
       H -5.72923e-01 -9.86125e-01  7.44855e-01
       L  5.72971e+01 -7.65344e-01 -7.30800e+00
       L  1.20619e+00  7.11579e+00 -8.83775e+00
6
# CELL(abcABC):  459.05226   459.05226   459.05226    90.00000    90.00000    90.00000  Step:          47  Bead:       0 x_centroid{angstrom}  cell{atomic_unit}
       C -3.79348e-01 -5.33495e-02  1.66189e-01
       O  8.71590e-01  2.11146e-01 -2.59241e-01
       H  9.77331e-02  9.45408e-01 -4.26314e-01
       H -5.75567e-01 -9.91376e-01  7.50743e-01
       L  5.70943e+01 -8.95590e-01 -7.47241e+00
       L  1.13613e+00  6.92931e+00 -8.83545e+00
6
# CELL(abcABC):  459.05226   459.05226   459.05226    90.00000    90.00000    90.00000  Step:          48  Bead:       0 x_centroid{angstrom}  cell{atomic_unit}
       C -3.80737e-01 -5.30673e-02  1.67992e-01
       O  8.71582e-01  2.11100e-01 -2.60815e-01
       H  1.16558e-01  9.47535e-01 -4.25902e-01
       H -5.77536e-01 -9.95997e-01  7.53860e-01
       L  5.68223e+01 -9.86736e-01 -7.57702e+00
       L  1.10234e+00  6.75615e+00 -8.77662e+00
6
# CELL(abcABC):  459.05226   459.05226   459.05226    90.00000    90.00000    90.00000  Step:          49  Bead:       0 x_centroid{angstrom}  cell{atomic_unit}
       C -3.82657e-01 -5.29821e-02  1.70263e-01
       O  8.72128e-01  2.10917e-01 -2.62516e-01
       H  1.31213e-01  9.50593e-01 -4.26365e-01
       H -5.77827e-01 -9.97032e-01  7.54197e-01
       L  5.64995e+01 -1.06284e+00 -7.59873e+00
       L  1.12178e+00  6.59971e+00 -8.63941e+00
6
# CELL(abcABC):  459.05226   459.05226   459.05226    90.00000    90.00000    90.00000  Step:          50  Bead:       0 x_centroid{angstrom}  cell{atomic_unit}
       C -3.85253e-01 -5.30646e-02  1.72844e-01
       O  8.73403e-01  2.10575e-01 -2.64068e-01
       H  1.41922e-01  9.55202e-01 -4.28326e-01
       H -5.77587e-01 -9.95094e-01  7.49956e-01
       L  5.60736e+01 -1.14725e+00 -7.59512e+00
       L  1.09307e+00  6.41815e+00 -8.47458e+00
6
# CELL(abcABC):  459.05226   459.05226   459.05226    90.00000    90.00000    90.00000  Step:          51  Bead:       0 x_centroid{angstrom}  cell{atomic_unit}
       C -3.88367e-01 -5.33401e-02  1.76088e-01
       O  8.75360e-01  2.10073e-01 -2.65945e-01
       H  1.47898e-01  9.61846e-01 -4.29977e-01
       H -5.77219e-01 -9.90329e-01  7.42595e-01
       L  5.55038e+01 -1.21063e+00 -7.55672e+00
       L  1.10364e+00  6.20749e+00 -8.22864e+00
6
# CELL(abcABC):  459.05226   459.05226   459.05226    90.00000    90.00000    90.00000  Step:          52  Bead:       0 x_centroid{angstrom}  cell{atomic_unit}
       C -3.92070e-01 -5.37074e-02  1.79521e-01
       O  8.77873e-01  2.09451e-01 -2.67730e-01
       H  1.51406e-01  9.69674e-01 -4.33151e-01
       H -5.76122e-01 -9.83748e-01  7.32969e-01
       L  5.48243e+01 -1.26502e+00 -7.47585e+00
       L  1.10741e+00  5.96468e+00 -7.90615e+00
6
# CELL(abcABC):  459.05226   459.05226   459.05226    90.00000    90.00000    90.00000  Step:          53  Bead:       0 x_centroid{angstrom}  cell{atomic_unit}
       C -3.95823e-01 -5.40945e-02  1.83114e-01
       O  8.80413e-01  2.08830e-01 -2.69554e-01
       H  1.54331e-01  9.77581e-01 -4.37101e-01
       H -5.74223e-01 -9.77057e-01  7.22734e-01
       L  5.40140e+01 -1.32945e+00 -7.26283e+00
       L  1.13565e+00  5.81278e+00 -7.52900e+00
6
# CELL(abcABC):  459.05226   459.05226   459.05226    90.00000    90.00000    90.00000  Step:          54  Bead:       0 x_centroid{angstrom}  cell{atomic_unit}
       C -3.99502e-01 -5.43676e-02  1.86705e-01
       O  8.82669e-01  2.08093e-01 -2.71318e-01
       H  1.60884e-01  9.86481e-01 -4.41625e-01
       H -5.72281e-01 -9.70944e-01  7.12096e-01
       L  5.32054e+01 -1.33850e+00 -6.95528e+00
       L  1.10405e+00  5.70787e+00 -7.14175e+00
6
# CELL(abcABC):  459.05226   459.05226   459.05226    90.00000    90.00000    90.00000  Step:          55  Bead:       0 x_centroid{angstrom}  cell{atomic_unit}
       C -4.03100e-01 -5.45595e-02  1.90216e-01
       O  8.84460e-01  2.07421e-01 -2.72963e-01
       H  1.73194e-01  9.95877e-01 -4.48066e-01
       H -5.69650e-01 -9.67309e-01  7.02351e-01
       L  5.23097e+01 -1.37212e+00 -6.60457e+00
       L  1.09019e+00  5.59518e+00 -6.65964e+00
6
# CELL(abcABC):  459.05226   459.05226   459.05226    90.00000    90.00000    90.00000  Step:          56  Bead:       0 x_centroid{angstrom}  cell{atomic_unit}
       C -4.06720e-01 -5.43657e-02  1.93277e-01
       O  8.85906e-01  2.06718e-01 -2.74234e-01
       H  1.89996e-01  1.00410e+00 -4.55491e-01
       H -5.65745e-01 -9.66624e-01  6.92955e-01
       L  5.13421e+01 -1.40659e+00 -6.17702e+00
       L  1.08665e+00  5.52947e+00 -6.13754e+00
6
# CELL(abcABC):  459.05226   459.05226   459.05226    90.00000    90.00000    90.00000  Step:          57  Bead:       0 x_centroid{angstrom}  cell{atomic_unit}
       C -4.10476e-01 -5.38328e-02  1.96355e-01
       O  8.86952e-01  2.06116e-01 -2.75619e-01
       H  2.13169e-01  1.01108e+00 -4.63626e-01
       H -5.60213e-01 -9.70357e-01  6.85831e-01
       L  5.03389e+01 -1.47576e+00 -5.75417e+00
       L  1.09882e+00  5.50860e+00 -5.51904e+00
6
# CELL(abcABC):  459.05226   459.05226   459.05226    90.00000    90.00000    90.00000  Step:          58  Bead:       0 x_centroid{angstrom}  cell{atomic_unit}
       C -4.14053e-01 -5.28548e-02  1.99301e-01
       O  8.87620e-01  2.05485e-01 -2.76876e-01
       H  2.39727e-01  1.01692e+00 -4.73327e-01
       H -5.54196e-01 -9.77789e-01  6.79766e-01
       L  4.92479e+01 -1.51706e+00 -5.25094e+00
       L  1.13743e+00  5.47000e+00 -4.89393e+00
6
# CELL(abcABC):  459.05226   459.05226   459.05226    90.00000    90.00000    90.00000  Step:          59  Bead:       0 x_centroid{angstrom}  cell{atomic_unit}
       C -4.17934e-01 -5.20290e-02  2.02237e-01
       O  8.88337e-01  2.05263e-01 -2.78079e-01
       H  2.68527e-01  1.02016e+00 -4.84133e-01
       H -5.47509e-01 -9.87276e-01  6.74087e-01
       L  4.80886e+01 -1.55952e+00 -4.76876e+00
       L  1.16900e+00  5.37234e+00 -4.26552e+00
6
# CELL(abcABC):  459.05226   459.05226   459.05226    90.00000    90.00000    90.00000  Step:          60  Bead:       0 x_centroid{angstrom}  cell{atomic_unit}
       C -4.22315e-01 -5.08708e-02  2.05072e-01
       O  8.89233e-01  2.05160e-01 -2.79220e-01
       H  3.00962e-01  1.02036e+00 -4.96947e-01
       H -5.41382e-01 -9.99623e-01  6.70543e-01
       L  4.68748e+01 -1.59992e+00 -4.23118e+00
       L  1.30344e+00  5.36785e+00 -3.56959e+00
6
# CELL(abcABC):  459.05226   459.05226   459.05226    90.00000    90.00000    90.00000  Step:          61  Bead:       0 x_centroid{angstrom}  cell{atomic_unit}
       C -4.27164e-01 -4.93909e-02  2.08510e-01
       O  8.90315e-01  2.05105e-01 -2.80620e-01
       H  3.35527e-01  1.01838e+00 -5.11286e-01
       H -5.34652e-01 -1.01433e+00  6.65458e-01
       L  4.54904e+01 -1.67225e+00 -3.66934e+00
       L  1.43337e+00  5.32851e+00 -2.86756e+00
6
# CELL(abcABC):  459.05226   459.05226   459.05226    90.00000    90.00000    90.00000  Step:          62  Bead:       0 x_centroid{angstrom}  cell{atomic_unit}
       C -4.32621e-01 -4.80779e-02  2.12287e-01
       O  8.91731e-01  2.05438e-01 -2.82032e-01
       H  3.72314e-01  1.01342e+00 -5.27312e-01
       H -5.28126e-01 -1.03029e+00  6.58215e-01
       L  4.39829e+01 -1.67093e+00 -3.12182e+00
       L  1.52589e+00  5.28916e+00 -2.16717e+00
6
# CELL(abcABC):  459.05226   459.05226   459.05226    90.00000    90.00000    90.00000  Step:          63  Bead:       0 x_centroid{angstrom}  cell{atomic_unit}
       C -4.38675e-01 -4.72955e-02  2.16539e-01
       O  8.93673e-01  2.06210e-01 -2.83684e-01
       H  4.08741e-01  1.00735e+00 -5.44260e-01
       H -5.22381e-01 -1.04580e+00  6.50037e-01
       L  4.23216e+01 -1.66475e+00 -2.57395e+00
       L  1.62118e+00  5.29230e+00 -1.47516e+00
6
# CELL(abcABC):  459.05226   459.05226   459.05226    90.00000    90.00000    90.00000  Step:          64  Bead:       0 x_centroid{angstrom}  cell{atomic_unit}
       C -4.45276e-01 -4.67122e-02  2.21507e-01
       O  8.95961e-01  2.06964e-01 -2.85596e-01
       H  4.46111e-01  1.00174e+00 -5.63456e-01
       H -5.16471e-01 -1.05917e+00  6.39739e-01
       L  4.05248e+01 -1.55925e+00 -2.03015e+00
       L  1.69847e+00  5.29532e+00 -8.35464e-01
6
# CELL(abcABC):  459.05226   459.05226   459.05226    90.00000    90.00000    90.00000  Step:          65  Bead:       0 x_centroid{angstrom}  cell{atomic_unit}
       C -4.52730e-01 -4.62427e-02  2.26985e-01
       O  8.98826e-01  2.07654e-01 -2.87752e-01
       H  4.83069e-01  9.97583e-01 -5.83872e-01
       H -5.09085e-01 -1.07163e+00  6.28439e-01
       L  3.86212e+01 -1.41565e+00 -1.49924e+00
       L  1.78108e+00  5.28754e+00 -1.57719e-01
6
# CELL(abcABC):  459.05226   459.05226   459.05226    90.00000    90.00000    90.00000  Step:          66  Bead:       0 x_centroid{angstrom}  cell{atomic_unit}
       C -4.60668e-01 -4.53241e-02  2.32742e-01