6
# CELL(abcABC):  459.05226   459.05226   459.05226    90.00000    90.00000    90.00000  Step:           0  Bead:       0 x_centroid{angstrom}  cell{atomic_unit}
       C -3.39887e-01 -1.13437e-01  8.06659e-02
       O  8.43483e-01  2.62672e-01 -1.81512e-01
       H -7.35799e-02  8.16467e-01 -6.61432e-01
       H -4.30016e-01 -9.65701e-01  7.62278e-01
       L  6.13458e+01  0.00000e+00  0.00000e+00
       L  0.00000e+00  8.59064e+00  0.00000e+00
6
# CELL(abcABC):  459.05226   459.05226   459.05226    90.00000    90.00000    90.00000  Step:           1  Bead:       0 x_centroid{angstrom}  cell{atomic_unit}
       C -3.42273e-01 -1.12447e-01  8.14711e-02
       O  8.45723e-01  2.63331e-01 -1.82075e-01
       H -7.26382e-02  8.05514e-01 -6.67516e-01
       H -4.38381e-01 -9.77037e-01  7.67906e-01
       L  6.15123e+01 -2.06077e-01 -2.10114e-02
       L  3.75065e-01  8.83183e+00 -3.73780e-01
6
# CELL(abcABC):  459.05226   459.05226   459.05226    90.00000    90.00000    90.00000  Step:           2  Bead:       0 x_centroid{angstrom}  cell{atomic_unit}
       C -3.44665e-01 -1.11934e-01  8.24278e-02
       O  8.47771e-01  2.64177e-01 -1.82769e-01
       H -6.76315e-02  7.95332e-01 -6.74428e-01
       H -4.47668e-01 -9.86431e-01  7.74643e-01
       L  6.16577e+01 -3.82899e-01  1.48972e-02
       L  7.53461e-01  9.07161e+00 -7.70751e-01
6
# CELL(abcABC):  459.05226   459.05226   459.05226    90.00000    90.00000    90.00000  Step:           3  Bead:       0 x_centroid{angstrom}  cell{atomic_unit}
       C -3.47078e-01 -1.11621e-01  8.33698e-02
       O  8.49730e-01  2.65073e-01 -1.83298e-01
       H -6.06257e-02  7.86176e-01 -6.82005e-01
       H -4.57329e-01 -9.95288e-01  7.79585e-01
       L  6.18229e+01 -5.25398e-01  9.96676e-02
       L  1.15343e+00  9.32982e+00 -1.21163e+00
6
# CELL(abcABC):  459.05226   459.05226   459.05226    90.00000    90.00000    90.00000  Step:           4  Bead:       0 x_centroid{angstrom}  cell{atomic_unit}
       C -3.49564e-01 -1.11548e-01  8.43841e-02
       O  8.51633e-01  2.65929e-01 -1.83881e-01
       H -5.21680e-02  7.79335e-01 -6.90266e-01
       H -4.66642e-01 -1.00299e+00  7.85252e-01
       L  6.19493e+01 -6.61588e-01  1.41528e-01
       L  1.52205e+00  9.61895e+00 -1.69128e+00
6
# CELL(abcABC):  459.05226   459.05226   459.05226    90.00000    90.00000    90.00000  Step:           5  Bead:       0 x_centroid{angstrom}  cell{atomic_unit}
       C -3.52347e-01 -1.11473e-01  8.53596e-02
       O  8.53738e-01  2.66310e-01 -1.84249e-01
       H -4.38229e-02  7.76170e-01 -7.00629e-01
       H -4.75489e-01 -1.00682e+00  7.90085e-01
       L  6.20678e+01 -7.91086e-01  1.52414e-01
       L  1.86698e+00  9.86566e+00 -2.18858e+00
6
# CELL(abcABC):  459.05226   459.05226   459.05226    90.00000    90.00000    90.00000  Step:           6  Bead:       0 x_centroid{angstrom}  cell{atomic_unit}
       C -3.55158e-01 -1.11530e-01  8.64637e-02
       O  8.55883e-01  2.66440e-01 -1.84576e-01
       H -3.61594e-02  7.75389e-01 -7.11401e-01
       H -4.83884e-01 -1.00752e+00  7.93145e-01
       L  6.20982e+01 -8.62534e-01  1.70359e-01
       L  2.16565e+00  1.01000e+01 -2.65434e+00
6
# CELL(abcABC):  459.05226   459.05226   459.05226    90.00000    90.00000    90.00000  Step:           7  Bead:       0 x_centroid{angstrom}  cell{atomic_unit}
       C -3.58092e-01 -1.11703e-01  8.74693e-02
       O  8.58164e-01  2.66347e-01 -1.84708e-01
       H -3.01169e-02  7.75529e-01 -7.22551e-01
       H -4.91328e-01 -1.00420e+00  7.94673e-01
       L  6.21091e+01 -9.15380e-01  1.38507e-01
       L  2.45271e+00  1.03043e+01 -3.10768e+00
6
# CELL(abcABC):  459.05226   459.05226   459.05226    90.00000    90.00000    90.00000  Step:           8  Bead:       0 x_centroid{angstrom}  cell{atomic_unit}
       C -3.60920e-01 -1.12105e-01  8.85950e-02
       O  8.60568e-01  2.66206e-01 -1.84816e-01
       H -2.68315e-02  7.76002e-01 -7.33611e-01
       H -4.99201e-01 -9.97739e-01  7.94250e-01
       L  6.20355e+01 -9.66473e-01  1.33647e-01
       L  2.74054e+00  1.05288e+01 -3.52209e+00
6
# CELL(abcABC):  459.05226   459.05226   459.05226    90.00000    90.00000    90.00000  Step:           9  Bead:       0 x_centroid{angstrom}  cell{atomic_unit}
       C -3.63786e-01 -1.12814e-01  8.97119e-02
       O  8.62999e-01  2.66033e-01 -1.84841e-01
       H -2.45870e-02  7.77829e-01 -7.44707e-01
       H -5.05941e-01 -9.88450e-01  7.92673e-01
       L  6.19356e+01 -1.04654e+00  5.40661e-02
       L  2.97322e+00  1.07380e+01 -3.86129e+00
6
# CELL(abcABC):  459.05226   459.05226   459.05226    90.00000    90.00000    90.00000  Step:          10  Bead:       0 x_centroid{angstrom}  cell{atomic_unit}
       C -3.66287e-01 -1.13978e-01  9.07368e-02
       O  8.64874e-01  2.65960e-01 -1.84685e-01
       H -1.87654e-02  7.81081e-01 -7.55373e-01
       H -5.11768e-01 -9.76771e-01  7.88862e-01
       L  6.18000e+01 -1.13483e+00 -4.48194e-02
       L  3.18341e+00  1.10057e+01 -4.17263e+00
6
# CELL(abcABC):  459.05226   459.05226   459.05226    90.00000    90.00000    90.00000  Step:          11  Bead:       0 x_centroid{angstrom}  cell{atomic_unit}
       C -3.68560e-01 -1.15042e-01  9.13439e-02
       O  8.66146e-01  2.65670e-01 -1.84313e-01
       H -7.26980e-03  7.85357e-01 -7.63370e-01
       H -5.16374e-01 -9.63875e-01  7.83873e-01
       L  6.16222e+01 -1.20814e+00 -8.55650e-02
       L  3.37224e+00  1.13019e+01 -4.41025e+00
6
# CELL(abcABC):  459.05226   459.05226   459.05226    90.00000    90.00000    90.00000  Step:          12  Bead:       0 x_centroid{angstrom}  cell{atomic_unit}
       C -3.70566e-01 -1.16058e-01  9.18700e-02
       O  8.67051e-01  2.65366e-01 -1.83980e-01
       H  5.84362e-03  7.87819e-01 -7.70146e-01
       H -5.19896e-01 -9.49574e-01  7.79197e-01
       L  6.13889e+01 -1.27740e+00 -9.44561e-02
       L  3.50741e+00  1.16674e+01 -4.59406e+00
6
# CELL(abcABC):  459.05226   459.05226   459.05226    90.00000    90.00000    90.00000  Step:          13  Bead:       0 x_centroid{angstrom}  cell{atomic_unit}
       C -3.72732e-01 -1.17101e-01  9.22183e-02
       O  8.68019e-01  2.65161e-01 -1.83769e-01
       H  1.82832e-02  7.89703e-01 -7.74198e-01
       H -5.21798e-01 -9.35943e-01  7.75820e-01
       L  6.11086e+01 -1.34241e+00 -6.77338e-02
       L  3.60011e+00  1.20422e+01 -4.75122e+00
6
# CELL(abcABC):  459.05226   459.05226   459.05226    90.00000    90.00000    90.00000  Step:          14  Bead:       0 x_centroid{angstrom}  cell{atomic_unit}
       C -3.74917e-01 -1.18182e-01  9.22694e-02
       O  8.69071e-01  2.65049e-01 -1.83564e-01
       H  2.91881e-02  7.90142e-01 -7.75656e-01
       H -5.23197e-01 -9.21849e-01  7.73403e-01
       L  6.07734e+01 -1.41814e+00  2.77413e-02
       L  3.64973e+00  1.23521e+01 -4.81160e+00
6
# CELL(abcABC):  459.05226   459.05226   459.05226    90.00000    90.00000    90.00000  Step:          15  Bead:       0 x_centroid{angstrom}  cell{atomic_unit}
       C -3.77590e-01 -1.18993e-01  9.22679e-02
       O  8.70393e-01  2.64938e-01 -1.83527e-01
       H  3.93469e-02  7.87750e-01 -7.75547e-01
       H -5.22310e-01 -9.08132e-01  7.72712e-01
       L  6.03807e+01 -1.50747e+00  8.77426e-02
       L  3.70218e+00  1.26222e+01 -4.85774e+00
6
# CELL(abcABC):  459.05226   459.05226   459.05226    90.00000    90.00000    90.00000  Step:          16  Bead:       0 x_centroid{angstrom}  cell{atomic_unit}
       C -3.80564e-01 -1.19387e-01  9.20236e-02
       O  8.71996e-01  2.64810e-01 -1.83609e-01
       H  4.90583e-02  7.83785e-01 -7.72674e-01
       H -5.21824e-01 -8.97557e-01  7.74030e-01
       L  5.99859e+01 -1.52513e+00  1.81466e-01
       L  3.70410e+00  1.28697e+01 -4.89110e+00
6
# CELL(abcABC):  459.05226   459.05226   459.05226    90.00000    90.00000    90.00000  Step:          17  Bead:       0 x_centroid{angstrom}  cell{atomic_unit}
       C -3.83423e-01 -1.19515e-01  9.18185e-02
       O  8.73735e-01  2.64601e-01 -1.83999e-01
       H  5.65771e-02  7.78665e-01 -7.67560e-01
       H -5.22604e-01 -8.87730e-01  7.77502e-01
       L  5.95247e+01 -1.50344e+00  2.74852e-01
       L  3.67657e+00  1.30934e+01 -4.92210e+00
6
# CELL(abcABC):  459.05226   459.05226   459.05226    90.00000    90.00000    90.00000  Step:          18  Bead:       0 x_centroid{angstrom}  cell{atomic_unit}
       C -3.86130e-01 -1.19095e-01  9.10467e-02
       O  8.75383e-01  2.64197e-01 -1.84324e-01
       H  6.31627e-02  7.72705e-01 -7.60399e-01
       H -5.22764e-01 -8.80480e-01  7.84630e-01
       L  5.89814e+01 -1.51178e+00  4.15061e-01
       L  3.62583e+00  1.33087e+01 -4.93295e+00
6
# CELL(abcABC):  459.05226   459.05226   459.05226    90.00000    90.00000    90.00000  Step:          19  Bead:       0 x_centroid{angstrom}  cell{atomic_unit}
       C -3.89193e-01 -1.18387e-01  8.97192e-02
       O  8.77252e-01  2.63890e-01 -1.84435e-01
       H  7.02465e-02  7.65798e-01 -7.52950e-01
       H -5.22617e-01 -8.77243e-01  7.94648e-01
       L  5.83310e+01 -1.51974e+00  5.82620e-01
       L  3.53937e+00  1.35271e+01 -4.89465e+00
6
# CELL(abcABC):  459.05226   459.05226   459.05226    90.00000    90.00000    90.00000  Step:          20  Bead:       0 x_centroid{angstrom}  cell{atomic_unit}
       C -3.92138e-01 -1.17258e-01  8.82320e-02
       O  8.79057e-01  2.63356e-01 -1.84579e-01
       H  7.78787e-02  7.59130e-01 -7.45494e-01
       H -5.23372e-01 -8.75753e-01  8.07096e-01
       L  5.76314e+01 -1.43718e+00  7.32073e-01
       L  3.42334e+00  1.37774e+01 -4.84586e+00
6
# CELL(abcABC):  459.05226   459.05226   459.05226    90.00000    90.00000    90.00000  Step:          21  Bead:       0 x_centroid{angstrom}  cell{atomic_unit}
       C -3.95173e-01 -1.16130e-01  8.64085e-02
       O  8.80902e-01  2.62905e-01 -1.84647e-01
       H  8.60968e-02  7.53043e-01 -7.38142e-01
       H -5.24183e-01 -8.76161e-01  8.22454e-01
       L  5.68851e+01 -1.26841e+00  8.54327e-01
       L  3.21729e+00  1.40175e+01 -4.77526e+00
6
# CELL(abcABC):  459.05226   459.05226   459.05226    90.00000    90.00000    90.00000  Step:          22  Bead:       0 x_centroid{angstrom}  cell{atomic_unit}
       C -3.97828e-01 -1.14797e-01  8.44162e-02
       O  8.82511e-01  2.62379e-01 -1.84573e-01
       H  9.36976e-02  7.47762e-01 -7.31605e-01
       H -5.25080e-01 -8.78619e-01  8.38363e-01
       L  5.60669e+01 -1.11901e+00  9.42804e-01
       L  2.92235e+00  1.42550e+01 -4.65549e+00
6
# CELL(abcABC):  459.05226   459.05226   459.05226    90.00000    90.00000    90.00000  Step:          23  Bead:       0 x_centroid{angstrom}  cell{atomic_unit}
       C -4.00558e-01 -1.13423e-01  8.23566e-02
       O  8.84015e-01  2.61683e-01 -1.84366e-01
       H  1.02974e-01  7.43010e-01 -7.26079e-01
       H -5.25102e-01 -8.79403e-01  8.53970e-01
       L  5.52148e+01 -9.75446e-01  1.03003e+00
       L  2.65880e+00  1.45023e+01 -4.50294e+00
6
# CELL(abcABC):  459.05226   459.05226   459.05226    90.00000    90.00000    90.00000  Step:          24  Bead:       0 x_centroid{angstrom}  cell{atomic_unit}
       C -4.03810e-01 -1.12306e-01  8.05895e-02
       O  8.85868e-01  2.61144e-01 -1.84134e-01
       H  1.13087e-01  7.38631e-01 -7.22087e-01
       H -5.25241e-01 -8.80013e-01  8.67219e-01
       L  5.43351e+01 -7.83012e-01  1.08874e+00
       L  2.38612e+00  1.47438e+01 -4.31988e+00
6
# CELL(abcABC):  459.05226   459.05226   459.05226    90.00000    90.00000    90.00000  Step:          25  Bead:       0 x_centroid{angstrom}  cell{atomic_unit}
       C -4.07492e-01 -1.11518e-01  7.88557e-02
       O  8.88029e-01  2.60782e-01 -1.83642e-01
       H  1.24047e-01  7.35201e-01 -7.20046e-01
       H -5.25960e-01 -8.80473e-01  8.77933e-01
       L  5.34205e+01 -6.13213e-01  1.09931e+00
       L  2.09055e+00  1.50265e+01 -4.14834e+00
6
# CELL(abcABC):  459.05226   459.05226   459.05226    90.00000    90.00000    90.00000  Step:          26  Bead:       0 x_centroid{angstrom}  cell{atomic_unit}
       C -4.11435e-01 -1.10936e-01  7.74438e-02
       O  8.90342e-01  2.60373e-01 -1.83166e-01
       H  1.35639e-01  7.33142e-01 -7.19401e-01
       H -5.26612e-01 -8.79065e-01  8.86460e-01
       L  5.24603e+01 -4.77522e-01  1.06944e+00
       L  1.80607e+00  1.52764e+01 -3.95937e+00
6
# CELL(abcABC):  459.05226   459.05226   459.05226    90.00000    90.00000    90.00000  Step:          27  Bead:       0 x_centroid{angstrom}  cell{atomic_unit}
       C -4.15739e-01 -1.10577e-01  7.63486e-02
       O  8.92693e-01  2.59764e-01 -1.82529e-01
       H  1.49622e-01  7.33518e-01 -7.20738e-01
       H -5.25886e-01 -8.74247e-01  8.90678e-01
       L  5.14398e+01 -3.53245e-01  1.05455e+00
       L  1.44497e+00  1.54856e+01 -3.83527e+00
6
# CELL(abcABC):  459.05226   459.05226   459.05226    90.00000    90.00000    90.00000  Step:          28  Bead:       0 x_centroid{angstrom}  cell{atomic_unit}
       C -4.20466e-01 -1.10564e-01  7.57657e-02
       O  8.95197e-01  2.59229e-01 -1.81946e-01
       H  1.65635e-01  7.34968e-01 -7.24651e-01
       H -5.24548e-01 -8.67508e-01  8.92192e-01
       L  5.04009e+01 -1.76012e-01  1.07704e+00
       L  1.07947e+00  1.56004e+01 -3.68758e+00
6
# CELL(abcABC):  459.05226   459.05226   459.05226    90.00000    90.00000    90.00000  Step:          29  Bead:       0 x_centroid{angstrom}  cell{atomic_unit}
       C -4.25503e-01 -1.11245e-01  7.57605e-02
       O  8.97700e-01  2.59007e-01 -1.81418e-01
       H  1.84923e-01  7.38370e-01 -7.29997e-01
       H -5.22709e-01 -8.59433e-01  8.89147e-01
       L  4.92521e+01 -4.95915e-03  1.04654e+00
       L  6.94389e-01  1.57147e+01 -3.52929e+00
6
# CELL(abcABC):  459.05226   459.05226   459.05226    90.00000    90.00000    90.00000  Step:          30  Bead:       0 x_centroid{angstrom}  cell{atomic_unit}
       C -4.30681e-01 -1.12356e-01  7.63662e-02
       O  9.00062e-01  2.59022e-01 -1.81110e-01
       H  2.08217e-01  7.42220e-01 -7.35558e-01
       H -5.20931e-01 -8.50441e-01  8.82531e-01
       L  4.80272e+01  1.75228e-01  9.95087e-01
       L  3.30231e-01  1.58138e+01 -3.34063e+00
6
# CELL(abcABC):  459.05226   459.05226   459.05226    90.00000    90.00000    90.00000  Step:          31  Bead:       0 x_centroid{angstrom}  cell{atomic_unit}
       C -4.35984e-01 -1.13503e-01  7.73602e-02
       O  9.02286e-01  2.59123e-01 -1.80804e-01
       H  2.35482e-01  7.45466e-01 -7.44361e-01
       H -5.19416e-01 -8.41711e-01  8.74550e-01
       L  4.67380e+01  2.96032e-01  9.42327e-01
       L -2.57713e-02  1.58789e+01 -3.13342e+00
6
# CELL(abcABC):  459.05226   459.05226   459.05226    90.00000    90.00000    90.00000  Step:          32  Bead:       0 x_centroid{angstrom}  cell{atomic_unit}
       C -4.41457e-01 -1.14678e-01  7.85800e-02
       O  9.04427e-01  2.59266e-01 -1.80562e-01
       H  2.66109e-01  7.49470e-01 -7.54588e-01
       H -5.17910e-01 -8.34090e-01  8.66290e-01
       L  4.54283e+01  4.24932e-01  9.01509e-01
       L -3.79570e-01  1.59511e+01 -2.88598e+00
6
# CELL(abcABC):  459.05226   459.05226   459.05226    90.00000    90.00000    90.00000  Step:          33  Bead:       0 x_centroid{angstrom}  cell{atomic_unit}
       C -4.46930e-01 -1.15941e-01  8.00109e-02
       O  9.06383e-01  2.59503e-01 -1.80347e-01
       H  2.99067e-01  7.54605e-01 -7.67146e-01
       H -5.15781e-01 -8.28015e-01  8.58238e-01
       L  4.40866e+01  5.99817e-01  8.82710e-01
       L -7.08067e-01  1.59283e+01 -2.60618e+00
6
# CELL(abcABC):  459.05226   459.05226   459.05226    90.00000    90.00000    90.00000  Step:          34  Bead:       0 x_centroid{angstrom}  cell{atomic_unit}
       C -4.52679e-01 -1.17195e-01  8.15109e-02
       O  9.08445e-01  2.59795e-01 -1.80115e-01
       H  3.33704e-01  7.60014e-01 -7.80683e-01
       H -5.13717e-01 -8.23180e-01  8.50078e-01
       L  4.26795e+01  7.97795e-01  8.29951e-01
       L -9.83899e-01  1.58353e+01 -2.28744e+00
6
# CELL(abcABC):  459.05226   459.05226   459.05226    90.00000    90.00000    90.00000  Step:          35  Bead:       0 x_centroid{angstrom}  cell{atomic_unit}
       C -4.58969e-01 -1.18072e-01  8.30757e-02
       O  9.10670e-01  2.59927e-01 -1.79989e-01
       H  3.71587e-01  7.66118e-01 -7.96057e-01
       H -5.11033e-01 -8.21013e-01  8.44620e-01
       L  4.11855e+01  1.03987e+00  7.88756e-01
       L -1.21164e+00  1.57246e+01 -1.90746e+00
6
# CELL(abcABC):  459.05226   459.05226   459.05226    90.00000    90.00000    90.00000  Step:          36  Bead:       0 x_centroid{angstrom}  cell{atomic_unit}
       C -4.65570e-01 -1.19008e-01  8.49778e-02
       O  9.12982e-01  2.60223e-01 -1.80121e-01
       H  4.11408e-01  7.73644e-01 -8.13786e-01
       H -5.07950e-01 -8.22108e-01  8.41610e-01
       L  3.96610e+01  1.28269e+00  7.56632e-01
       L -1.42032e+00  1.55365e+01 -1.57800e+00
6
# CELL(abcABC):  459.05226   459.05226   459.05226    90.00000    90.00000    90.00000  Step:          37  Bead:       0 x_centroid{angstrom}  cell{atomic_unit}
       C -4.72408e-01 -1.19686e-01  8.65724e-02
       O  9.15412e-01  2.60525e-01 -1.80145e-01
       H  4.52288e-01  7.82308e-01 -8.33102e-01
       H -5.04914e-01 -8.27532e-01  8.42163e-01
       L  3.80283e+01  1.52854e+00  6.85420e-01
       L -1.64669e+00  1.53543e+01 -1.23633e+00
6
# CELL(abcABC):  459.05226   459.05226   459.05226    90.00000    90.00000    90.00000  Step:          38  Bead:       0 x_centroid{angstrom}  cell{atomic_unit}
       C -4.79734e-01 -1.20229e-01  8.82099e-02
       O  9.18138e-01  2.60923e-01 -1.80361e-01
       H  4.94231e-01  7.91458e-01 -8.52479e-01
       H -5.01791e-01 -8.36524e-01  8.45298e-01
       L  3.63196e+01  1.79635e+00  5.51002e-01
       L -1.85163e+00  1.50874e+01 -8.30404e-01
6
# CELL(abcABC):  459.05226   459.05226   459.05226    90.00000    90.00000    90.00000  Step:          39  Bead:       0 x_centroid{angstrom}  cell{atomic_unit}
       C -4.87382e-01 -1.20628e-01  8.96839e-02
       O  9.21140e-01  2.61419e-01 -1.80570e-01
       H  5.36508e-01  7.99878e-01 -8.72676e-01
       H -4.99496e-01 -8.48010e-01  8.51112e-01
       L  3.45118e+01  2.05898e+00  3.94982e-01
       L -2.04199e+00  1.47394e+01 -4.03580e-01
6
# CELL(abcABC):  459.05226   459.05226   459.05226    90.00000    90.00000    90.00000  Step:          40  Bead:       0 x_centroid{angstrom}  cell{atomic_unit}
       C -4.95469e-01 -1.20663e-01  9.13988e-02
       O  9.24362e-01  2.61872e-01 -1.81027e-01
       H  5.80611e-01  8.07255e-01 -8.93696e-01
       H -4.97273e-01 -8.62107e-01  8.58776e-01
       L  3.26330e+01  2.33173e+00  2.86915e-01
       L -2.20240e+00  1.43538e+01  1.74291e-02
6
# CELL(abcABC):  459.05226   459.05226   459.05226    90.00000    90.00000    90.00000  Step:          41  Bead:       0 x_centroid{angstrom}  cell{atomic_unit}
       C -5.03651e-01 -1.20752e-01  9.31946e-02
       O  9.27506e-01  2.62485e-01 -1.81620e-01
       H  6.25611e-01  8.13486e-01 -9.13508e-01
       H -4.93528e-01 -8.76938e-01  8.66469e-01
       L  3.07210e+01  2.57017e+00  1.50004e-01
       L -2.41637e+00  1.39971e+01  3.97499e-01
6
# CELL(abcABC):  459.05226   459.05226   459.05226    90.00000    90.00000    90.00000  Step:          42  Bead:       0 x_centroid{angstrom}  cell{atomic_unit}
       C -5.11801e-01 -1.20562e-01  9.52164e-02
       O  9.30454e-01  2.63095e-01 -1.82437e-01
       H  6.72196e-01  8.16474e-01 -9.30905e-01
       H -4.88580e-01 -8.91795e-01  8.72587e-01
       L  2.87507e+01  2.80021e+00  2.31993e-02
       L -2.65570e+00  1.36289e+01  8.10384e-01
6
# CELL(abcABC):  459.05226   459.05226   459.05226    90.00000    90.00000    90.00000  Step:          43  Bead:       0 x_centroid{angstrom}  cell{atomic_unit}
       C -5.19820e-01 -1.20390e-01  9.70909e-02
       O  9.33344e-01  2.63844e-01 -1.83276e-01
       H  7.17886e-01  8.16215e-01 -9.44703e-01
       H -4.83384e-01 -9.05380e-01  8.77239e-01
       L  2.67718e+01  2.96643e+00 -1.33377e-01
       L -2.87655e+00  1.33037e+01  1.19353e+00
6
# CELL(abcABC):  459.05226   459.05226   459.05226    90.00000    90.00000    90.00000  Step:          44  Bead:       0 x_centroid{angstrom}  cell{atomic_unit}
       C -5.27397e-01 -1.19992e-01  9.89011e-02
       O  9.36039e-01  2.64514e-01 -1.83980e-01
       H  7.61540e-01  8.12965e-01 -9.56804e-01
       H -4.78324e-01 -9.17396e-01  8.78853e-01
       L  2.47481e+01  3.14557e+00 -3.41298e-01
       L -3.07219e+00  1.28911e+01  1.59121e+00
6
# CELL(abcABC):  459.05226   459.05226   459.05226    90.00000    90.00000    90.00000  Step:          45  Bead:       0 x_centroid{angstrom}  cell{atomic_unit}
       C -5.34616e-01 -1.19736e-01  1.01008e-01
       O  9.38607e-01  2.65325e-01 -1.84952e-01
       H  8.02858e-01  8.08187e-01 -9.66411e-01
       H -4.73221e-01 -9.28382e-01  8.78702e-01
       L  2.26720e+01  3.29755e+00 -6.03107e-01
       L -3.14929e+00  1.24431e+01  1.99828e+00
6
# CELL(abcABC):  459.05226   459.05226   459.05226    90.00000    90.00000    90.00000  Step:          46  Bead:       0 x_centroid{angstrom}  cell{atomic_unit}
       C -5.41029e-01 -1.19215e-01  1.03222e-01
       O  9.40542e-01  2.65864e-01 -1.85867e-01
       H  8.44020e-01  8.02382e-01 -9.75906e-01
       H -4.67444e-01 -9.37156e-01  8.76327e-01
       L  2.04484e+01  3.39008e+00 -8.98758e-01
       L -3.19485e+00  1.20143e+01  2.32137e+00
6
# CELL(abcABC):  459.05226   459.05226   459.05226    90.00000    90.00000    90.00000  Step:          47  Bead:       0 x_centroid{angstrom}  cell{atomic_unit}
       C -5.46768e-01 -1.18664e-01  1.05567e-01
       O  9.42087e-01  2.66240e-01 -1.87028e-01
       H  8.83000e-01  7.95787e-01 -9.82395e-01
       H -4.61292e-01 -9.42893e-01  8.73292e-01
       L  1.81932e+01  3.43626e+00 -1.20101e+00
       L -3.26640e+00  1.15963e+01  2.64812e+00
6
# CELL(abcABC):  459.05226   459.05226   459.05226    90.00000    90.00000    90.00000  Step:          48  Bead:       0 x_centroid{angstrom}  cell{atomic_unit}
       C -5.51717e-01 -1.17750e-01  1.07761e-01
       O  9.42947e-01  2.66010e-01 -1.88113e-01
       H  9.21090e-01  7.91317e-01 -9.87502e-01
       H -4.52773e-01 -9.45468e-01  8.69429e-01
       L  1.58942e+01  3.45900e+00 -1.46725e+00
       L -3.32733e+00  1.12138e+01  2.99578e+00
6
# CELL(abcABC):  459.05226   459.05226   459.05226    90.00000    90.00000    90.00000  Step:          49  Bead:       0 x_centroid{angstrom}  cell{atomic_unit}
       C -5.55310e-01 -1.16730e-01  1.09569e-01
       O  9.42861e-01  2.65383e-01 -1.88900e-01
       H  9.56999e-01  7.88668e-01 -9.91283e-01
       H -4.43233e-01 -9.44840e-01  8.64049e-01
       L  1.35644e+01  3.43251e+00 -1.69526e+00
       L -3.33481e+00  1.09090e+01  3.40356e+00
6
# CELL(abcABC):  459.05226   459.05226   459.05226    90.00000    90.00000    90.00000  Step:          50  Bead:       0 x_centroid{angstrom}  cell{atomic_unit}
       C -5.58071e-01 -1.15493e-01  1.10867e-01
       O  9.42111e-01  2.64373e-01 -1.89346e-01
       H  9.91574e-01  7.88352e-01 -9.93376e-01
       H -4.31734e-01 -9.43049e-01  8.57656e-01
       L  1.12265e+01  3.40931e+00 -1.90597e+00
       L -3.32518e+00  1.06139e+01  3.81444e+00
6
# CELL(abcABC):  459.05226   459.05226   459.05226    90.00000    90.00000    90.00000  Step:          51  Bead:       0 x_centroid{angstrom}  cell{atomic_unit}
       C -5.59616e-01 -1.13843e-01  1.11782e-01
       O  9.40608e-01  2.62733e-01 -1.89731e-01
       H  1.02258e+00  7.91084e-01 -9.92846e-01
       H -4.19246e-01 -9.39214e-01  8.52188e-01
       L  8.94575e+00  3.35779e+00 -2.04617e+00
       L -3.30539e+00  1.03074e+01  4.21494e+00
6
# CELL(abcABC):  459.05226   459.05226   459.05226    90.00000    90.00000    90.00000  Step:          52  Bead:       0 x_centroid{angstrom}  cell{atomic_unit}
       C -5.60348e-01 -1.12048e-01  1.12042e-01
       O  9.38724e-01  2.60805e-01 -1.89853e-01
       H  1.04860e+00  7.94458e-01 -9.89447e-01
       H -4.05375e-01 -9.33192e-01  8.47490e-01
       L  6.61444e+00  3.28835e+00 -2.14397e+00
       L -3.28429e+00  1.00277e+01  4.57501e+00
6
# CELL(abcABC):  459.05226   459.05226   459.05226    90.00000    90.00000    90.00000  Step:          53  Bead:       0 x_centroid{angstrom}  cell{atomic_unit}
       C -5.60442e-01 -1.10129e-01  1.11717e-01
       O  9.36556e-01  2.58537e-01 -1.89857e-01
       H  1.07046e+00  7.99473e-01 -9.82435e-01
       H -3.90474e-01 -9.24869e-01  8.44246e-01
       L  4.26343e+00  3.12086e+00 -2.18865e+00
       L -3.21858e+00  9.81986e+00  4.91484e+00
6
# CELL(abcABC):  459.05226   459.05226   459.05226    90.00000    90.00000    90.00000  Step:          54  Bead:       0 x_centroid{angstrom}  cell{atomic_unit}
       C -5.59955e-01 -1.08156e-01  1.10946e-01
       O  9.34405e-01  2.56075e-01 -1.89788e-01
       H  1.08615e+00  8.06502e-01 -9.71966e-01
       H -3.76505e-01 -9.16102e-01  8.41715e-01
       L  1.82785e+00  2.91260e+00 -2.23245e+00
       L -3.19263e+00  9.62563e+00  5.23675e+00
6
# CELL(abcABC):  459.05226   459.05226   459.05226    90.00000    90.00000    90.00000  Step:          55  Bead:       0 x_centroid{angstrom}  cell{atomic_unit}
       C -5.59027e-01 -1.05775e-01  1.09873e-01
       O  9.32257e-01  2.53212e-01 -1.89747e-01
       H  1.09644e+00  8.13588e-01 -9.58482e-01
       H -3.62460e-01 -9.05930e-01  8.40200e-01
       L -6.25239e-01  2.73805e+00 -2.22762e+00
       L -3.12243e+00  9.44758e+00  5.54146e+00
6
# CELL(abcABC):  459.05226   459.05226   459.05226    90.00000    90.00000    90.00000  Step:          56  Bead:       0 x_centroid{angstrom}  cell{atomic_unit}
       C -5.57754e-01 -1.03076e-01  1.08150e-01
       O  9.30231e-01  2.50165e-01 -1.89536e-01
       H  1.10175e+00  8.19524e-01 -9.41470e-01
       H -3.49452e-01 -8.95448e-01  8.40209e-01
       L -3.15813e+00  2.49835e+00 -2.20012e+00
       L -3.02185e+00  9.28374e+00  5.79322e+00
6
# CELL(abcABC):  459.05226   459.05226   459.05226    90.00000    90.00000    90.00000  Step:          57  Bead:       0 x_centroid{angstrom}  cell{atomic_unit}
       C -5.56005e-01 -1.00043e-01  1.06657e-01
       O  9.28251e-01  2.46983e-01 -1.89513e-01
       H  1.10147e+00  8.23334e-01 -9.23055e-01
       H -3.37237e-01 -8.84677e-01  8.39113e-01
       L -5.70397e+00  2.29362e+00 -2.13470e+00
       L -2.92802e+00  9.11493e+00  5.92167e+00
6
# CELL(abcABC):  459.05226   459.05226   459.05226    90.00000    90.00000    90.00000  Step:          58  Bead:       0 x_centroid{angstrom}  cell{atomic_unit}
       C -5.53524e-01 -9.68052e-02  1.05021e-01
       O  9.26043e-01  2.43753e-01 -1.89230e-01
       H  1.09631e+00  8.25202e-01 -9.05095e-01
       H -3.25270e-01 -8.73605e-01  8.36116e-01
       L -8.26803e+00  2.07673e+00 -2.12428e+00
       L -2.82306e+00  8.88388e+00  5.99804e+00
6
# CELL(abcABC):  459.05226   459.05226   459.05226    90.00000    90.00000    90.00000  Step:          59  Bead:       0 x_centroid{angstrom}  cell{atomic_unit}
       C -5.50304e-01 -9.37621e-02  1.03191e-01
       O  9.23697e-01  2.40754e-01 -1.88654e-01
       H  1.08782e+00  8.24933e-01 -8.87813e-01
       H -3.16575e-01 -8.61729e-01  8.31405e-01
       L -1.08188e+01  1.81442e+00 -2.07722e+00
       L -2.72729e+00  8.65506e+00  6.10702e+00
6
# CELL(abcABC):  459.05226   459.05226   459.05226    90.00000    90.00000    90.00000  Step:          60  Bead:       0 x_centroid{angstrom}  cell{atomic_unit}
       C -5.46348e-01 -9.02785e-02  1.01324e-01
       O  9.21098e-01  2.37449e-01 -1.87760e-01
       H  1.07647e+00  8.24286e-01 -8.72031e-01
       H -3.09726e-01 -8.49783e-01  8.23662e-01
       L -1.34358e+01  1.48270e+00 -2.09636e+00
       L -2.64293e+00  8.34622e+00  6.17038e+00
6
# CELL(abcABC):  459.05226   459.05226   459.05226    90.00000    90.00000    90.00000  Step:          61  Bead:       0 x_centroid{angstrom}  cell{atomic_unit}
       C -5.41533e-01 -8.67253e-02  9.91617e-02
       O  9.18019e-01  2.34096e-01 -1.86293e-01
       H  1.06401e+00  8.24050e-01 -8.60457e-01
       H -3.04412e-01 -8.38243e-01  8.14587e-01
       L -1.60470e+01  1.05778e+00 -2.12718e+00
       L -2.54723e+00  7.97648e+00  6.17934e+00
6
# CELL(abcABC):  459.05226   459.05226   459.05226    90.00000    90.00000    90.00000  Step:          62  Bead:       0 x_centroid{angstrom}  cell{atomic_unit}
       C -5.35409e-01 -8.27488e-02  9.68623e-02
       O  9.14129e-01  2.30500e-01 -1.84415e-01
       H  1.05062e+00  8.25433e-01 -8.52447e-01
       H -3.00910e-01 -8.29428e-01  8.04190e-01
       L -1.86026e+01  5.51903e-01 -2.14984e+00
       L -2.43560e+00  7.56372e+00  6.15783e+00
6
# CELL(abcABC):  459.05226   459.05226   459.05226    90.00000    90.00000    90.00000  Step:          63  Bead:       0 x_centroid{angstrom}  cell{atomic_unit}
       C -5.28391e-01 -7.85643e-02  9.46089e-02
       O  9.09912e-01  2.26931e-01 -1.82314e-01
       H  1.03508e+00  8.27155e-01 -8.49238e-01
       H -3.00758e-01 -8.23802e-01  7.94556e-01
       L -2.11150e+01 -3.53696e-03 -2.17804e+00
       L -2.32174e+00  7.10140e+00  6.04935e+00
6
# CELL(abcABC):  459.05226   459.05226   459.05226    90.00000    90.00000    90.00000  Step:          64  Bead:       0 x_centroid{angstrom}  cell{atomic_unit}
       C -5.20800e-01 -7.38552e-02  9.22294e-02
       O  9.05452e-01  2.23035e-01 -1.79685e-01
       H  1.01917e+00  8.29870e-01 -8.52016e-01
       H -3.03200e-01 -8.20174e-01  7.83993e-01
       L -2.36367e+01 -5.57854e-01 -2.15779e+00
       L -2.20895e+00  6.53315e+00  5.96946e+00
6
# CELL(abcABC):  459.05226   459.05226   459.05226    90.00000    90.00000    90.00000  Step:          65  Bead:       0 x_centroid{angstrom}  cell{atomic_unit}
       C -5.12469e-01 -6.87629e-02  8.97369e-02
       O  9.00692e-01  2.19163e-01 -1.76731e-01
       H  1.00182e+00  8.31975e-01 -8.59857e-01
       H -3.08281e-01 -8.20825e-01  7.74694e-01
       L -2.61054e+01 -1.13419e+00 -2.11349e+00
       L -2.06023e+00  5.86940e+00  5.81870e+00
6
# CELL(abcABC):  459.05226   459.05226   459.05226    90.00000    90.00000    90.00000  Step:          66  Bead:       0 x_centroid{angstrom}  cell{atomic_unit}
       C -5.03510e-01 -6.34305e-02  8.69577e-02