6
# CELL(abcABC):  459.05226   459.05226   459.05226    90.00000    90.00000    90.00000  Step:           0  Bead:       0 x_centroid{angstrom}  cell{atomic_unit}
       C -3.39887e-01 -1.13437e-01  8.06659e-02
       O  8.43483e-01  2.62672e-01 -1.81512e-01
       H -7.35799e-02  8.16467e-01 -6.61432e-01
       H -4.30016e-01 -9.65701e-01  7.62278e-01
       L  6.13458e+01  0.00000e+00  0.00000e+00
       L  0.00000e+00  8.59064e+00  0.00000e+00
6
# CELL(abcABC):  459.05226   459.05226   459.05226    90.00000    90.00000    90.00000  Step:           1  Bead:       0 x_centroid{angstrom}  cell{atomic_unit}
       C -3.40903e-01 -1.10618e-01  7.86629e-02
       O  8.44274e-01  2.60916e-01 -1.78817e-01
       H -7.68677e-02  8.15609e-01 -6.59788e-01
       H -4.27263e-01 -9.70746e-01  7.41425e-01
       L  6.16511e+01  4.09084e-01  2.75596e-01
       L -1.58921e-01  8.51411e+00  2.51756e-01
6
# CELL(abcABC):  459.05226   459.05226   459.05226    90.00000    90.00000    90.00000  Step:           2  Bead:       0 x_centroid{angstrom}  cell{atomic_unit}
       C -3.41787e-01 -1.07787e-01  7.70193e-02
       O  8.44770e-01  2.59017e-01 -1.76552e-01
       H -7.74780e-02  8.16465e-01 -6.59019e-01
       H -4.24073e-01 -9.75375e-01  7.23985e-01
       L  6.19202e+01  8.17841e-01  5.14290e-01
       L -2.49896e-01  8.43924e+00  5.72056e-01
6
# CELL(abcABC):  459.05226   459.05226   459.05226    90.00000    90.00000    90.00000  Step:           3  Bead:       0 x_centroid{angstrom}  cell{atomic_unit}
       C -3.42206e-01 -1.04731e-01  7.52848e-02
       O  8.44650e-01  2.56853e-01 -1.74365e-01
       H -7.33005e-02  8.20412e-01 -6.57686e-01
       H -4.21503e-01 -9.81574e-01  7.08334e-01
       L  6.22056e+01  1.25686e+00  7.85000e-01
       L -2.80281e-01  8.31635e+00  7.97441e-01
6
# CELL(abcABC):  459.05226   459.05226   459.05226    90.00000    90.00000    90.00000  Step:           4  Bead:       0 x_centroid{angstrom}  cell{atomic_unit}
       C -3.42435e-01 -1.01409e-01  7.35581e-02
       O  8.44280e-01  2.54449e-01 -1.72338e-01
       H -6.70835e-02  8.26223e-01 -6.55988e-01
       H -4.19247e-01 -9.88968e-01  6.94773e-01
       L  6.24849e+01  1.69054e+00  1.03809e+00
       L -2.96077e-01  8.18441e+00  1.02547e+00
6
# CELL(abcABC):  459.05226   459.05226   459.05226    90.00000    90.00000    90.00000  Step:           5  Bead:       0 x_centroid{angstrom}  cell{atomic_unit}
       C -3.42654e-01 -9.81207e-02  7.19498e-02
       O  8.44003e-01  2.52013e-01 -1.70294e-01
       H -6.20843e-02  8.34415e-01 -6.56335e-01
       H -4.17426e-01 -9.97881e-01  6.81566e-01
       L  6.27987e+01  2.14537e+00  1.28111e+00
       L -2.85204e-01  8.11345e+00  1.29290e+00
6
# CELL(abcABC):  459.05226   459.05226   459.05226    90.00000    90.00000    90.00000  Step:           6  Bead:       0 x_centroid{angstrom}  cell{atomic_unit}
       C -3.43074e-01 -9.49379e-02  7.02985e-02
       O  8.44138e-01  2.49584e-01 -1.68248e-01
       H -5.98036e-02  8.43810e-01 -6.55739e-01
       H -4.17022e-01 -1.00689e+00  6.67868e-01
       L  6.30857e+01  2.60586e+00  1.53996e+00
       L -2.22195e-01  8.08071e+00  1.59308e+00
6
# CELL(abcABC):  459.05226   459.05226   459.05226    90.00000    90.00000    90.00000  Step:           7  Bead:       0 x_centroid{angstrom}  cell{atomic_unit}
       C -3.43838e-01 -9.17370e-02  6.86442e-02
       O  8.44885e-01  2.47078e-01 -1.66108e-01
       H -6.03112e-02  8.52972e-01 -6.55629e-01
       H -4.19440e-01 -1.01462e+00  6.53201e-01
       L  6.33287e+01  3.03176e+00  1.77421e+00
       L -1.64557e-01  8.05910e+00  1.89943e+00
6
# CELL(abcABC):  459.05226   459.05226   459.05226    90.00000    90.00000    90.00000  Step:           8  Bead:       0 x_centroid{angstrom}  cell{atomic_unit}
       C -3.44635e-01 -8.82487e-02  6.70971e-02
       O  8.46017e-01  2.44380e-01 -1.64132e-01
       H -6.55628e-02  8.61643e-01 -6.53285e-01
       H -4.22804e-01 -1.02224e+00  6.37669e-01
       L  6.35199e+01  3.44041e+00  2.01355e+00
       L -1.06355e-01  8.00798e+00  2.13650e+00
6
# CELL(abcABC):  459.05226   459.05226   459.05226    90.00000    90.00000    90.00000  Step:           9  Bead:       0 x_centroid{angstrom}  cell{atomic_unit}
       C -3.45295e-01 -8.50281e-02  6.53647e-02
       O  8.47179e-01  2.41936e-01 -1.62162e-01
       H -7.24606e-02  8.69207e-01 -6.49049e-01
       H -4.26621e-01 -1.02957e+00  6.22566e-01
       L  6.37260e+01  3.83817e+00  2.25276e+00
       L -6.29403e-02  7.95019e+00  2.35509e+00
6
# CELL(abcABC):  459.05226   459.05226   459.05226    90.00000    90.00000    90.00000  Step:          10  Bead:       0 x_centroid{angstrom}  cell{atomic_unit}
       C -3.45777e-01 -8.15887e-02  6.36343e-02
       O  8.48252e-01  2.39523e-01 -1.60279e-01
       H -7.81192e-02  8.75585e-01 -6.43572e-01
       H -4.32358e-01 -1.03876e+00  6.07615e-01
       L  6.39232e+01  4.14861e+00  2.41982e+00
       L -6.55288e-02  7.89549e+00  2.55649e+00
6
# CELL(abcABC):  459.05226   459.05226   459.05226    90.00000    90.00000    90.00000  Step:          11  Bead:       0 x_centroid{angstrom}  cell{atomic_unit}
       C -3.45874e-01 -7.82175e-02  6.20610e-02
       O  8.48643e-01  2.37277e-01 -1.58451e-01
       H -7.71206e-02  8.80505e-01 -6.38872e-01
       H -4.38531e-01 -1.04835e+00  5.92480e-01
       L  6.41495e+01  4.44319e+00  2.54220e+00
       L -5.19046e-02  7.86726e+00  2.72581e+00
6
# CELL(abcABC):  459.05226   459.05226   459.05226    90.00000    90.00000    90.00000  Step:          12  Bead:       0 x_centroid{angstrom}  cell{atomic_unit}
       C -3.45682e-01 -7.47687e-02  6.04800e-02
       O  8.48430e-01  2.35096e-01 -1.56652e-01
       H -6.98712e-02  8.84224e-01 -6.33758e-01
       H -4.44872e-01 -1.05864e+00  5.77464e-01
       L  6.44705e+01  4.65329e+00  2.67917e+00
       L -1.91635e-02  7.85056e+00  2.93238e+00
6
# CELL(abcABC):  459.05226   459.05226   459.05226    90.00000    90.00000    90.00000  Step:          13  Bead:       0 x_centroid{angstrom}  cell{atomic_unit}
       C -3.45516e-01 -7.16698e-02  5.89652e-02
       O  8.48026e-01  2.33330e-01 -1.54903e-01
       H -5.99886e-02  8.85913e-01 -6.28713e-01
       H -4.50514e-01 -1.06928e+00  5.62526e-01
       L  6.48163e+01  4.83599e+00  2.86318e+00
       L -2.69691e-02  7.74218e+00  3.08039e+00
6
# CELL(abcABC):  459.05226   459.05226   459.05226    90.00000    90.00000    90.00000  Step:          14  Bead:       0 x_centroid{angstrom}  cell{atomic_unit}
       C -3.45133e-01 -6.90977e-02  5.74469e-02
       O  8.47558e-01  2.31908e-01 -1.53183e-01
       H -4.98074e-02  8.85971e-01 -6.21137e-01
       H -4.58083e-01 -1.07739e+00  5.45577e-01
       L  6.51946e+01  4.94380e+00  3.02669e+00
       L  4.69494e-02  7.61137e+00  3.21914e+00
6
# CELL(abcABC):  459.05226   459.05226   459.05226    90.00000    90.00000    90.00000  Step:          15  Bead:       0 x_centroid{angstrom}  cell{atomic_unit}
       C -3.44865e-01 -6.66907e-02  5.58171e-02
       O  8.47647e-01  2.30507e-01 -1.51395e-01
       H -4.48266e-02  8.84295e-01 -6.12370e-01
       H -4.67883e-01 -1.08212e+00  5.27736e-01
       L  6.55180e+01  5.01180e+00  3.14608e+00
       L  1.24332e-01  7.46011e+00  3.29866e+00
6
# CELL(abcABC):  459.05226   459.05226   459.05226    90.00000    90.00000    90.00000  Step:          16  Bead:       0 x_centroid{angstrom}  cell{atomic_unit}
       C -3.44937e-01 -6.42892e-02  5.41457e-02
       O  8.48402e-01  2.28772e-01 -1.49495e-01
       H -4.60530e-02  8.84584e-01 -6.03778e-01
       H -4.78007e-01 -1.08342e+00  5.08858e-01
       L  6.58709e+01  5.02859e+00  3.22780e+00
       L  1.78669e-01  7.33949e+00  3.30414e+00
6
# CELL(abcABC):  459.05226   459.05226   459.05226    90.00000    90.00000    90.00000  Step:          17  Bead:       0 x_centroid{angstrom}  cell{atomic_unit}
       C -3.45034e-01 -6.22060e-02  5.25292e-02
       O  8.49451e-01  2.27003e-01 -1.47689e-01
       H -5.12224e-02  8.87781e-01 -5.94005e-01
       H -4.88520e-01 -1.08329e+00  4.89697e-01
       L  6.61719e+01  4.99854e+00  3.23346e+00
       L  2.24058e-01  7.21018e+00  3.28266e+00
6
# CELL(abcABC):  459.05226   459.05226   459.05226    90.00000    90.00000    90.00000  Step:          18  Bead:       0 x_centroid{angstrom}  cell{atomic_unit}
       C -3.44980e-01 -6.04136e-02  5.10288e-02
       O  8.50360e-01  2.25173e-01 -1.45937e-01
       H -5.57305e-02  8.93811e-01 -5.84812e-01
       H -4.99292e-01 -1.08155e+00  4.70565e-01
       L  6.65138e+01  4.97175e+00  3.22578e+00
       L  2.85461e-01  7.11617e+00  3.29266e+00
6
# CELL(abcABC):  459.05226   459.05226   459.05226    90.00000    90.00000    90.00000  Step:          19  Bead:       0 x_centroid{angstrom}  cell{atomic_unit}
       C -3.44698e-01 -5.84007e-02  4.97376e-02
       O  8.50816e-01  2.23177e-01 -1.44318e-01
       H -5.67872e-02  9.02045e-01 -5.77092e-01
       H -5.09087e-01 -1.08205e+00  4.52544e-01
       L  6.69198e+01  4.90339e+00  3.22267e+00
       L  3.26725e-01  7.10559e+00  3.27888e+00
6
# CELL(abcABC):  459.05226   459.05226   459.05226    90.00000    90.00000    90.00000  Step:          20  Bead:       0 x_centroid{angstrom}  cell{atomic_unit}
       C -3.44067e-01 -5.66827e-02  4.85312e-02
       O  8.50691e-01  2.21216e-01 -1.42795e-01
       H -5.29748e-02  9.14420e-01 -5.69350e-01
       H -5.18720e-01 -1.08371e+00  4.35040e-01
       L  6.73622e+01  4.77453e+00  3.19487e+00
       L  4.01356e-01  7.12421e+00  3.23693e+00
6
# CELL(abcABC):  459.05226   459.05226   459.05226    90.00000    90.00000    90.00000  Step:          21  Bead:       0 x_centroid{angstrom}  cell{atomic_unit}
       C -3.43277e-01 -5.52176e-02  4.71672e-02
       O  8.50395e-01  2.19387e-01 -1.41106e-01
       H -4.68744e-02  9.27936e-01 -5.63219e-01
       H -5.29842e-01 -1.08561e+00  4.18410e-01
       L  6.78650e+01  4.61535e+00  3.16845e+00
       L  4.68335e-01  7.20861e+00  3.14616e+00
6
# CELL(abcABC):  459.05226   459.05226   459.05226    90.00000    90.00000    90.00000  Step:          22  Bead:       0 x_centroid{angstrom}  cell{atomic_unit}
       C -3.42304e-01 -5.37439e-02  4.57197e-02
       O  8.49924e-01  2.17438e-01 -1.39337e-01
       H -3.93091e-02  9.43003e-01 -5.56723e-01
       H -5.41866e-01 -1.08725e+00  4.01195e-01
       L  6.84258e+01  4.45557e+00  3.10858e+00
       L  5.40310e-01  7.29881e+00  2.99894e+00
6
# CELL(abcABC):  459.05226   459.05226   459.05226    90.00000    90.00000    90.00000  Step:          23  Bead:       0 x_centroid{angstrom}  cell{atomic_unit}
       C -3.41211e-01 -5.22214e-02  4.39850e-02
       O  8.49567e-01  2.15376e-01 -1.37526e-01
       H -3.38029e-02  9.57292e-01 -5.48385e-01
       H -5.55056e-01 -1.08690e+00  3.84947e-01
       L  6.89895e+01  4.30564e+00  3.02497e+00
       L  5.68877e-01  7.35679e+00  2.78592e+00
6
# CELL(abcABC):  459.05226   459.05226   459.05226    90.00000    90.00000    90.00000  Step:          24  Bead:       0 x_centroid{angstrom}  cell{atomic_unit}
       C -3.40068e-01 -5.06536e-02  4.21660e-02
       O  8.49533e-01  2.13390e-01 -1.35699e-01
       H -3.33679e-02  9.70129e-01 -5.39221e-01
       H -5.68917e-01 -1.08682e+00  3.68691e-01
       L  6.96000e+01  4.14906e+00  2.87419e+00
       L  5.99150e-01  7.37750e+00  2.51021e+00
6
# CELL(abcABC):  459.05226   459.05226   459.05226    90.00000    90.00000    90.00000  Step:          25  Bead:       0 x_centroid{angstrom}  cell{atomic_unit}
       C -3.39030e-01 -4.91178e-02  4.00604e-02
       O  8.49942e-01  2.11493e-01 -1.33753e-01
       H -3.71311e-02  9.80602e-01 -5.29573e-01
       H -5.84391e-01 -1.08536e+00  3.53508e-01
       L  7.02715e+01  3.92551e+00  2.70337e+00
       L  6.02404e-01  7.36620e+00  2.20328e+00
6
# CELL(abcABC):  459.05226   459.05226   459.05226    90.00000    90.00000    90.00000  Step:          26  Bead:       0 x_centroid{angstrom}  cell{atomic_unit}
       C -3.38097e-01 -4.75444e-02  3.81072e-02
       O  8.50568e-01  2.09760e-01 -1.32077e-01
       H -4.25306e-02  9.87664e-01 -5.18648e-01
       H -6.00425e-01 -1.08349e+00  3.39511e-01
       L  7.09577e+01  3.63277e+00  2.55831e+00
       L  6.27066e-01  7.32940e+00  1.87028e+00
6
# CELL(abcABC):  459.05226   459.05226   459.05226    90.00000    90.00000    90.00000  Step:          27  Bead:       0 x_centroid{angstrom}  cell{atomic_unit}
       C -3.36888e-01 -4.58971e-02  3.61488e-02
       O  8.50911e-01  2.08071e-01 -1.30485e-01
       H -4.74884e-02  9.93080e-01 -5.04979e-01
       H -6.15720e-01 -1.08148e+00  3.24191e-01
       L  7.16882e+01  3.27274e+00  2.39356e+00
       L  6.31922e-01  7.25762e+00  1.51372e+00
6
# CELL(abcABC):  459.05226   459.05226   459.05226    90.00000    90.00000    90.00000  Step:          28  Bead:       0 x_centroid{angstrom}  cell{atomic_unit}
       C -3.35439e-01 -4.42459e-02  3.42462e-02
       O  8.50761e-01  2.06576e-01 -1.29028e-01
       H -4.87168e-02  9.96468e-01 -4.90521e-01
       H -6.29788e-01 -1.08055e+00  3.09549e-01
       L  7.24390e+01  2.88622e+00  2.23230e+00
       L  6.39479e-01  7.13407e+00  1.16186e+00
6
# CELL(abcABC):  459.05226   459.05226   459.05226    90.00000    90.00000    90.00000  Step:          29  Bead:       0 x_centroid{angstrom}  cell{atomic_unit}
       C -3.33902e-01 -4.22600e-02  3.20455e-02
       O  8.50101e-01  2.04965e-01 -1.27355e-01
       H -4.60463e-02  9.98692e-01 -4.76099e-01
       H -6.40770e-01 -1.08061e+00  2.95061e-01
       L  7.32671e+01  2.49745e+00  2.09276e+00
       L  6.78137e-01  7.06110e+00  8.23875e-01
6
# CELL(abcABC):  459.05226   459.05226   459.05226    90.00000    90.00000    90.00000  Step:          30  Bead:       0 x_centroid{angstrom}  cell{atomic_unit}
       C -3.32338e-01 -4.03866e-02  2.98053e-02
       O  8.49109e-01  2.03571e-01 -1.25660e-01
       H -4.12209e-02  9.99748e-01 -4.62208e-01
       H -6.48971e-01 -1.08164e+00  2.81250e-01
       L  7.41396e+01  2.09584e+00  1.90833e+00
       L  6.75788e-01  7.04850e+00  4.80922e-01
6
# CELL(abcABC):  459.05226   459.05226   459.05226    90.00000    90.00000    90.00000  Step:          31  Bead:       0 x_centroid{angstrom}  cell{atomic_unit}
       C -3.30684e-01 -3.83024e-02  2.76052e-02
       O  8.47995e-01  2.01967e-01 -1.23980e-01
       H -3.72161e-02  1.00024e+00 -4.49303e-01
       H -6.55509e-01 -1.08130e+00  2.68273e-01
       L  7.50486e+01  1.71177e+00  1.59695e+00
       L  7.06737e-01  7.04630e+00  9.34891e-02
6
# CELL(abcABC):  459.05226   459.05226   459.05226    90.00000    90.00000    90.00000  Step:          32  Bead:       0 x_centroid{angstrom}  cell{atomic_unit}
       C -3.29188e-01 -3.59642e-02  2.54932e-02
       O  8.46976e-01  2.00152e-01 -1.22502e-01
       H -3.45917e-02  9.99851e-01 -4.34982e-01
       H -6.60311e-01 -1.07970e+00  2.56010e-01
       L  7.60349e+01  1.28548e+00  1.28344e+00
       L  7.15271e-01  7.01815e+00 -2.51041e-01
6
# CELL(abcABC):  459.05226   459.05226   459.05226    90.00000    90.00000    90.00000  Step:          33  Bead:       0 x_centroid{angstrom}  cell{atomic_unit}
       C -3.28118e-01 -3.33913e-02  2.31384e-02
       O  8.46449e-01  1.98164e-01 -1.20991e-01
       H -3.50405e-02  9.99285e-01 -4.19917e-01
       H -6.64800e-01 -1.07797e+00  2.45373e-01
       L  7.70101e+01  8.22300e-01  1.03301e+00
       L  7.47379e-01  6.98336e+00 -6.34011e-01
6
# CELL(abcABC):  459.05226   459.05226   459.05226    90.00000    90.00000    90.00000  Step:          34  Bead:       0 x_centroid{angstrom}  cell{atomic_unit}
       C -3.27336e-01 -3.06726e-02  2.05295e-02
       O  8.46403e-01  1.95970e-01 -1.19234e-01
       H -4.01245e-02  9.98732e-01 -4.05469e-01
       H -6.68869e-01 -1.07475e+00  2.34464e-01
       L  7.80180e+01  3.87645e-01  7.90720e-01
       L  7.60164e-01  6.99507e+00 -1.03389e+00
6
# CELL(abcABC):  459.05226   459.05226   459.05226    90.00000    90.00000    90.00000  Step:          35  Bead:       0 x_centroid{angstrom}  cell{atomic_unit}
       C -3.26672e-01 -2.77370e-02  1.79453e-02
       O  8.46532e-01  1.93534e-01 -1.17522e-01
       H -4.83055e-02  1.00062e+00 -3.92071e-01
       H -6.71190e-01 -1.07276e+00  2.25037e-01
       L  7.90311e+01  8.98996e-03  5.47269e-01
       L  7.62552e-01  6.99374e+00 -1.42944e+00
6
# CELL(abcABC):  459.05226   459.05226   459.05226    90.00000    90.00000    90.00000  Step:          36  Bead:       0 x_centroid{angstrom}  cell{atomic_unit}
       C -3.26193e-01 -2.46653e-02  1.51297e-02
       O  8.46848e-01  1.90974e-01 -1.15634e-01
       H -5.79038e-02  1.00546e+00 -3.79585e-01
       H -6.72947e-01 -1.07335e+00  2.16415e-01
       L  8.01748e+01 -3.73295e-01  3.64191e-01
       L  7.70146e-01  6.97552e+00 -1.75042e+00
6
# CELL(abcABC):  459.05226   459.05226   459.05226    90.00000    90.00000    90.00000  Step:          37  Bead:       0 x_centroid{angstrom}  cell{atomic_unit}
       C -3.25752e-01 -2.17204e-02  1.26314e-02
       O  8.47041e-01  1.88277e-01 -1.14026e-01
       H -6.68910e-02  1.01447e+00 -3.67554e-01
       H -6.72966e-01 -1.07442e+00  2.08884e-01
       L  8.14007e+01 -7.45314e-01  1.28953e-01
       L  7.89455e-01  6.96216e+00 -2.00458e+00
6
# CELL(abcABC):  459.05226   459.05226   459.05226    90.00000    90.00000    90.00000  Step:          38  Bead:       0 x_centroid{angstrom}  cell{atomic_unit}
       C -3.25384e-01 -1.85393e-02  1.00886e-02
       O  8.47055e-01  1.85219e-01 -1.12384e-01
       H -7.36961e-02  1.02787e+00 -3.56167e-01
       H -6.71489e-01 -1.07699e+00  2.01980e-01
       L  8.26720e+01 -1.12769e+00 -5.81614e-02
       L  8.60104e-01  6.96195e+00 -2.25138e+00
6
# CELL(abcABC):  459.05226   459.05226   459.05226    90.00000    90.00000    90.00000  Step:          39  Bead:       0 x_centroid{angstrom}  cell{atomic_unit}
       C -3.24729e-01 -1.54064e-02  7.44491e-03
       O  8.46616e-01  1.82090e-01 -1.10504e-01
       H -7.87104e-02  1.04422e+00 -3.46998e-01
       H -6.68060e-01 -1.08080e+00  1.94704e-01
       L  8.39873e+01 -1.47091e+00 -2.78175e-01
       L  9.13315e-01  6.95081e+00 -2.46252e+00
6
# CELL(abcABC):  459.05226   459.05226   459.05226    90.00000    90.00000    90.00000  Step:          40  Bead:       0 x_centroid{angstrom}  cell{atomic_unit}
       C -3.23865e-01 -1.21737e-02  4.75809e-03
       O  8.45863e-01  1.78817e-01 -1.08467e-01
       H -8.28770e-02  1.06160e+00 -3.39137e-01
       H -6.62977e-01 -1.08456e+00  1.86739e-01
       L  8.53842e+01 -1.81663e+00 -4.96302e-01
       L  8.99989e-01  6.94104e+00 -2.65143e+00
6
# CELL(abcABC):  459.05226   459.05226   459.05226    90.00000    90.00000    90.00000  Step:          41  Bead:       0 x_centroid{angstrom}  cell{atomic_unit}
       C -3.22651e-01 -9.28226e-03  2.14643e-03
       O  8.44847e-01  1.75651e-01 -1.06434e-01
       H -8.78689e-02  1.07958e+00 -3.31602e-01
       H -6.57078e-01 -1.08655e+00  1.78228e-01
       L  8.68051e+01 -2.12854e+00 -6.68797e-01
       L  8.48334e-01  6.90061e+00 -2.78607e+00
6
# CELL(abcABC):  459.05226   459.05226   459.05226    90.00000    90.00000    90.00000  Step:          42  Bead:       0 x_centroid{angstrom}  cell{atomic_unit}
       C -3.21454e-01 -6.51907e-03 -5.50373e-04
       O  8.44037e-01  1.72632e-01 -1.04269e-01
       H -9.49800e-02  1.09591e+00 -3.24305e-01
       H -6.52164e-01 -1.08771e+00  1.68871e-01
       L  8.83709e+01 -2.38723e+00 -8.19854e-01
       L  7.50830e-01  6.84440e+00 -2.94024e+00
6
# CELL(abcABC):  459.05226   459.05226   459.05226    90.00000    90.00000    90.00000  Step:          43  Bead:       0 x_centroid{angstrom}  cell{atomic_unit}
       C -3.20026e-01 -3.87772e-03 -3.48907e-03
       O  8.43425e-01  1.69720e-01 -1.01908e-01
       H -1.07669e-01  1.10987e+00 -3.16658e-01
       H -6.47601e-01 -1.08677e+00  1.58914e-01
       L  8.99716e+01 -2.60456e+00 -9.42588e-01
       L  6.61235e-01  6.77503e+00 -3.11608e+00
6
# CELL(abcABC):  459.05226   459.05226   459.05226    90.00000    90.00000    90.00000  Step:          44  Bead:       0 x_centroid{angstrom}  cell{atomic_unit}
       C -3.18342e-01 -9.90207e-04 -6.71168e-03
       O  8.42903e-01  1.66670e-01 -9.94217e-02
       H -1.24181e-01  1.12132e+00 -3.07992e-01
       H -6.43746e-01 -1.08404e+00  1.49315e-01
       L  9.16885e+01 -2.77821e+00 -1.05151e+00
       L  5.54847e-01  6.63827e+00 -3.23832e+00
6
# CELL(abcABC):  459.05226   459.05226   459.05226    90.00000    90.00000    90.00000  Step:          45  Bead:       0 x_centroid{angstrom}  cell{atomic_unit}
       C -3.16140e-01  2.36074e-03 -1.00146e-02
       O  8.42197e-01  1.63266e-01 -9.69390e-02
       H -1.43317e-01  1.13027e+00 -2.98251e-01
       H -6.40586e-01 -1.07867e+00  1.39619e-01
       L  9.35277e+01 -2.90601e+00 -1.15941e+00
       L  4.29515e-01  6.38849e+00 -3.30716e+00
6
# CELL(abcABC):  459.05226   459.05226   459.05226    90.00000    90.00000    90.00000  Step:          46  Bead:       0 x_centroid{angstrom}  cell{atomic_unit}
       C -3.13416e-01  5.89728e-03 -1.34323e-02
       O  8.41287e-01  1.59736e-01 -9.42855e-02
       H -1.65555e-01  1.13839e+00 -2.87826e-01
       H -6.37381e-01 -1.07271e+00  1.27842e-01
       L  9.55453e+01 -3.01093e+00 -1.21524e+00
       L  2.81814e-01  6.11998e+00 -3.32647e+00
6
# CELL(abcABC):  459.05226   459.05226   459.05226    90.00000    90.00000    90.00000  Step:          47  Bead:       0 x_centroid{angstrom}  cell{atomic_unit}
       C -3.10185e-01  9.85100e-03 -1.69866e-02
       O  8.40341e-01  1.56003e-01 -9.15915e-02
       H -1.91106e-01  1.14671e+00 -2.76957e-01
       H -6.36398e-01 -1.06866e+00  1.16567e-01
       L  9.76985e+01 -3.10932e+00 -1.26847e+00
       L  1.18859e-01  5.81374e+00 -3.28193e+00
6
# CELL(abcABC):  459.05226   459.05226   459.05226    90.00000    90.00000    90.00000  Step:          48  Bead:       0 x_centroid{angstrom}  cell{atomic_unit}
       C -3.05891e-01  1.40747e-02 -2.07301e-02
       O  8.38842e-01  1.52145e-01 -8.87544e-02
       H -2.19949e-01  1.15566e+00 -2.66478e-01
       H -6.36082e-01 -1.06649e+00  1.05615e-01
       L  9.99907e+01 -3.18042e+00 -1.26991e+00
       L -4.90971e-02  5.51367e+00 -3.19413e+00
6
# CELL(abcABC):  459.05226   459.05226   459.05226    90.00000    90.00000    90.00000  Step:          49  Bead:       0 x_centroid{angstrom}  cell{atomic_unit}
       C -3.00335e-01  1.88163e-02 -2.48704e-02
       O  8.36898e-01  1.47936e-01 -8.56398e-02
       H -2.53529e-01  1.16398e+00 -2.55715e-01
       H -6.39093e-01 -1.06433e+00  9.46711e-02
       L  1.02488e+02 -3.18753e+00 -1.26106e+00
       L -2.70380e-01  5.17845e+00 -3.05975e+00
6
# CELL(abcABC):  459.05226   459.05226   459.05226    90.00000    90.00000    90.00000  Step:          50  Bead:       0 x_centroid{angstrom}  cell{atomic_unit}
       C -2.93865e-01  2.40313e-02 -2.87141e-02
       O  8.34679e-01  1.43416e-01 -8.27226e-02
       H -2.92668e-01  1.17192e+00 -2.45460e-01
       H -6.43120e-01 -1.06251e+00  8.37948e-02
       L  1.05146e+02 -3.14156e+00 -1.21332e+00
       L -5.38542e-01  4.84996e+00 -2.88988e+00
6
# CELL(abcABC):  459.05226   459.05226   459.05226    90.00000    90.00000    90.00000  Step:          51  Bead:       0 x_centroid{angstrom}  cell{atomic_unit}
       C -2.86594e-01  3.00212e-02 -3.25884e-02
       O  8.32545e-01  1.38355e-01 -7.98017e-02
       H -3.39124e-01  1.17854e+00 -2.35036e-01
       H -6.50837e-01 -1.06004e+00  7.30283e-02
       L  1.07956e+02 -3.08202e+00 -1.19719e+00
       L -7.72793e-01  4.56913e+00 -2.64314e+00
6
# CELL(abcABC):  459.05226   459.05226   459.05226    90.00000    90.00000    90.00000  Step:          52  Bead:       0 x_centroid{angstrom}  cell{atomic_unit}
       C -2.79158e-01  3.67331e-02 -3.65367e-02
       O  8.30855e-01  1.32935e-01 -7.68641e-02
       H -3.92223e-01  1.18278e+00 -2.24349e-01
       H -6.61007e-01 -1.05812e+00  6.26140e-02
       L  1.10841e+02 -3.01092e+00 -1.21691e+00
       L -9.38227e-01  4.29844e+00 -2.35416e+00
6
# CELL(abcABC):  459.05226   459.05226   459.05226    90.00000    90.00000    90.00000  Step:          53  Bead:       0 x_centroid{angstrom}  cell{atomic_unit}
       C -2.71856e-01  4.42341e-02 -4.08063e-02
       O  8.29898e-01  1.27116e-01 -7.37719e-02
       H -4.53857e-01  1.18264e+00 -2.12762e-01
       H -6.72725e-01 -1.05489e+00  5.27011e-02
       L  1.13832e+02 -2.97592e+00 -1.26670e+00
       L -1.10185e+00  4.03966e+00 -2.08789e+00
6
# CELL(abcABC):  459.05226   459.05226   459.05226    90.00000    90.00000    90.00000  Step:          54  Bead:       0 x_centroid{angstrom}  cell{atomic_unit}
       C -2.65103e-01  5.26133e-02 -4.52367e-02
       O  8.30091e-01  1.20814e-01 -7.06862e-02
       H -5.23665e-01  1.17677e+00 -1.98933e-01
       H -6.87933e-01 -1.04870e+00  4.25500e-02
       L  1.16803e+02 -2.94634e+00 -1.31500e+00
       L -1.33698e+00  3.79267e+00 -1.78897e+00
6
# CELL(abcABC):  459.05226   459.05226   459.05226    90.00000    90.00000    90.00000  Step:          55  Bead:       0 x_centroid{angstrom}  cell{atomic_unit}
       C -2.59997e-01  6.15197e-02 -4.96834e-02
       O  8.32241e-01  1.14226e-01 -6.76633e-02
       H -6.01682e-01  1.16597e+00 -1.84510e-01
       H -7.06392e-01 -1.03939e+00  3.29707e-02
       L  1.19810e+02 -2.86497e+00 -1.28531e+00
       L -1.58350e+00  3.58945e+00 -1.52559e+00
6
# CELL(abcABC):  459.05226   459.05226   459.05226    90.00000    90.00000    90.00000  Step:          56  Bead:       0 x_centroid{angstrom}  cell{atomic_unit}
       C -2.56841e-01  7.08264e-02 -5.42349e-02
       O  8.36381e-01  1.07411e-01 -6.47221e-02
       H -6.85452e-01  1.14886e+00 -1.67641e-01
       H -7.27465e-01 -1.02495e+00  2.34976e-02
       L  1.22854e+02 -2.75619e+00 -1.28290e+00
       L -1.84340e+00  3.38361e+00 -1.24715e+00
6
# CELL(abcABC):  459.05226   459.05226   459.05226    90.00000    90.00000    90.00000  Step:          57  Bead:       0 x_centroid{angstrom}  cell{atomic_unit}
       C -2.56404e-01  8.00948e-02 -5.83582e-02
       O  8.42851e-01  1.00633e-01 -6.20391e-02
       H -7.72575e-01  1.12559e+00 -1.50501e-01
       H -7.49762e-01 -1.00448e+00  1.27207e-02
       L  1.25814e+02 -2.66845e+00 -1.23727e+00
       L -2.04355e+00  3.18729e+00 -9.57500e-01
6
# CELL(abcABC):  459.05226   459.05226   459.05226    90.00000    90.00000    90.00000  Step:          58  Bead:       0 x_centroid{angstrom}  cell{atomic_unit}
       C -2.58707e-01  8.88063e-02 -6.24819e-02
       O  8.51448e-01  9.39836e-02 -5.93120e-02
       H -8.61048e-01  1.09754e+00 -1.33991e-01
       H -7.71767e-01 -9.74595e-01  1.83904e-03
       L  1.28742e+02 -2.57683e+00 -1.14957e+00
       L -2.25183e+00  2.92635e+00 -6.37821e-01
6
# CELL(abcABC):  459.05226   459.05226   459.05226    90.00000    90.00000    90.00000  Step:          59  Bead:       0 x_centroid{angstrom}  cell{atomic_unit}
       C -2.63064e-01  9.66667e-02 -6.65619e-02
       O  8.61527e-01  8.79475e-02 -5.65500e-02
       H -9.48247e-01  1.06476e+00 -1.17881e-01
       H -7.94125e-01 -9.39559e-01 -9.70892e-03
       L  1.31635e+02 -2.44691e+00 -1.07565e+00
       L -2.43904e+00  2.60287e+00 -3.21638e-01
6
# CELL(abcABC):  459.05226   459.05226   459.05226    90.00000    90.00000    90.00000  Step:          60  Bead:       0 x_centroid{angstrom}  cell{atomic_unit}
       C -2.68665e-01  1.03939e-01 -7.08621e-02
       O  8.72285e-01  8.19509e-02 -5.37170e-02
       H -1.03251e+00  1.02910e+00 -1.01085e-01
       H -8.15392e-01 -8.95316e-01 -2.04284e-02
       L  1.34571e+02 -2.22323e+00 -9.99498e-01
       L -2.60229e+00  2.29324e+00 -3.61861e-02
6
# CELL(abcABC):  459.05226   459.05226   459.05226    90.00000    90.00000    90.00000  Step:          61  Bead:       0 x_centroid{angstrom}  cell{atomic_unit}
       C -2.74726e-01  1.10290e-01 -7.50224e-02
       O  8.83118e-01  7.64364e-02 -5.09133e-02
       H -1.11262e+00  9.93339e-01 -8.49376e-02
       H -8.36526e-01 -8.47659e-01 -3.16932e-02
       L  1.37500e+02 -1.93942e+00 -9.31701e-01
       L -2.73491e+00  1.91593e+00  2.42527e-01
6
# CELL(abcABC):  459.05226   459.05226   459.05226    90.00000    90.00000    90.00000  Step:          62  Bead:       0 x_centroid{angstrom}  cell{atomic_unit}
       C -2.80054e-01  1.15674e-01 -7.90659e-02
       O  8.93154e-01  7.16967e-02 -4.80984e-02
       H -1.18822e+00  9.57320e-01 -7.04935e-02
       H -8.58367e-01 -8.00506e-01 -4.28790e-02
       L  1.40544e+02 -1.60535e+00 -8.01867e-01
       L -2.80988e+00  1.49114e+00  5.56217e-01
6
# CELL(abcABC):  459.05226   459.05226   459.05226    90.00000    90.00000    90.00000  Step:          63  Bead:       0 x_centroid{angstrom}  cell{atomic_unit}
       C -2.84145e-01  1.20401e-01 -8.27160e-02
       O  9.01822e-01  6.74372e-02 -4.55270e-02
       H -1.25728e+00  9.24118e-01 -5.63244e-02
       H -8.79820e-01 -7.55993e-01 -5.46310e-02
       L  1.43656e+02 -1.27266e+00 -6.39477e-01
       L -2.85749e+00  1.10166e+00  8.73849e-01
6
# CELL(abcABC):  459.05226   459.05226   459.05226    90.00000    90.00000    90.00000  Step:          64  Bead:       0 x_centroid{angstrom}  cell{atomic_unit}
       C -2.86883e-01  1.25477e-01 -8.60080e-02
       O  9.08960e-01  6.31699e-02 -4.30826e-02
       H -1.31799e+00  8.92959e-01 -4.33731e-02
       H -9.01523e-01 -7.17585e-01 -6.74054e-02
       L  1.46883e+02 -9.10317e-01 -4.74360e-01
       L -2.89629e+00  7.37404e-01  1.16925e+00
6
# CELL(abcABC):  459.05226   459.05226   459.05226    90.00000    90.00000    90.00000  Step:          65  Bead:       0 x_centroid{angstrom}  cell{atomic_unit}
       C -2.88103e-01  1.31049e-01 -8.91346e-02
       O  9.14313e-01  5.89703e-02 -4.06993e-02
       H -1.36872e+00  8.64117e-01 -2.99694e-02
       H -9.23033e-01 -6.88483e-01 -8.16227e-02
       L  1.50253e+02 -6.17451e-01 -3.17634e-01
       L -2.92238e+00  4.62829e-01  1.45071e+00
6
# CELL(abcABC):  459.05226   459.05226   459.05226    90.00000    90.00000    90.00000  Step:          66  Bead:       0 x_centroid{angstrom}  cell{atomic_unit}
       C -2.88121e-01  1.37185e-01 -9.22932e-02