6
# CELL(abcABC):  459.05226   459.05226   459.05226    90.00000    90.00000    90.00000  Step:           0  Bead:       0 x_centroid{angstrom}  cell{atomic_unit}
       C -3.39887e-01 -1.13437e-01  8.06659e-02
       O  8.43483e-01  2.62672e-01 -1.81512e-01
       H -7.35799e-02  8.16467e-01 -6.61432e-01
       H -4.30016e-01 -9.65701e-01  7.62278e-01
       L  6.13458e+01  0.00000e+00  0.00000e+00
       L  0.00000e+00  8.59064e+00  0.00000e+00
6
# CELL(abcABC):  459.05226   459.05226   459.05226    90.00000    90.00000    90.00000  Step:           1  Bead:       0 x_centroid{angstrom}  cell{atomic_unit}
       C -3.38550e-01 -1.16202e-01  8.01941e-02
       O  8.42481e-01  2.63574e-01 -1.81475e-01
       H -6.89815e-02  8.26929e-01 -6.50572e-01
       H -4.34542e-01 -9.57230e-01  7.56142e-01
       L  6.12218e+01  8.74943e-03  5.65910e-01
       L -4.11798e-02  8.01919e+00 -1.60253e-02
6
# CELL(abcABC):  459.05226   459.05226   459.05226    90.00000    90.00000    90.00000  Step:           2  Bead:       0 x_centroid{angstrom}  cell{atomic_unit}
       C -3.37135e-01 -1.18802e-01  7.96779e-02
       O  8.41560e-01  2.64431e-01 -1.81479e-01
       H -6.61939e-02  8.37354e-01 -6.40730e-01
       H -4.39541e-01 -9.50004e-01  7.52273e-01
       L  6.12038e+01  5.79136e-02  1.08410e+00
       L -7.17034e-02  7.47349e+00 -7.63246e-02
6
# CELL(abcABC):  459.05226   459.05226   459.05226    90.00000    90.00000    90.00000  Step:           3  Bead:       0 x_centroid{angstrom}  cell{atomic_unit}
       C -3.36059e-01 -1.21338e-01  7.91910e-02
       O  8.41112e-01  2.65306e-01 -1.81653e-01
       H -6.63912e-02  8.48383e-01 -6.29542e-01
       H -4.45039e-01 -9.44449e-01  7.49407e-01
       L  6.11554e+01  9.11626e-02  1.58976e+00
       L -8.05066e-02  6.98184e+00 -1.41627e-01
6
# CELL(abcABC):  459.05226   459.05226   459.05226    90.00000    90.00000    90.00000  Step:           4  Bead:       0 x_centroid{angstrom}  cell{atomic_unit}
       C -3.35046e-01 -1.23302e-01  7.86249e-02
       O  8.40754e-01  2.65874e-01 -1.81783e-01
       H -6.78532e-02  8.58208e-01 -6.18748e-01
       H -4.49902e-01 -9.39714e-01  7.47165e-01
       L  6.10554e+01  1.77400e-01  2.11513e+00
       L -9.13464e-02  6.53317e+00 -1.90271e-01
6
# CELL(abcABC):  459.05226   459.05226   459.05226    90.00000    90.00000    90.00000  Step:           5  Bead:       0 x_centroid{angstrom}  cell{atomic_unit}
       C -3.34354e-01 -1.24842e-01  7.79014e-02
       O  8.40752e-01  2.66312e-01 -1.81824e-01
       H -7.06738e-02  8.66875e-01 -6.07949e-01
       H -4.55221e-01 -9.36724e-01  7.45364e-01
       L  6.09287e+01  1.90249e-01  2.65498e+00
       L -1.03008e-01  6.07559e+00 -2.43238e-01
6
# CELL(abcABC):  459.05226   459.05226   459.05226    90.00000    90.00000    90.00000  Step:           6  Bead:       0 x_centroid{angstrom}  cell{atomic_unit}
       C -3.33700e-01 -1.26359e-01  7.70856e-02
       O  8.40688e-01  2.66965e-01 -1.81897e-01
       H -7.38652e-02  8.74154e-01 -5.96645e-01
       H -4.58755e-01 -9.36080e-01  7.44730e-01
       L  6.08213e+01  2.67772e-01  3.12732e+00
       L -1.06749e-01  5.61461e+00 -3.32837e-01
6
# CELL(abcABC):  459.05226   459.05226   459.05226    90.00000    90.00000    90.00000  Step:           7  Bead:       0 x_centroid{angstrom}  cell{atomic_unit}
       C -3.33497e-01 -1.27599e-01  7.62282e-02
       O  8.40878e-01  2.67753e-01 -1.82082e-01
       H -7.63068e-02  8.79900e-01 -5.84798e-01
       H -4.61649e-01 -9.39358e-01  7.45830e-01
       L  6.07198e+01  3.39563e-01  3.59217e+00
       L -1.46312e-01  5.16931e+00 -4.18977e-01
6
# CELL(abcABC):  459.05226   459.05226   459.05226    90.00000    90.00000    90.00000  Step:           8  Bead:       0 x_centroid{angstrom}  cell{atomic_unit}
       C -3.33450e-01 -1.28451e-01  7.49225e-02
       O  8.41190e-01  2.68524e-01 -1.82039e-01
       H -7.82570e-02  8.84357e-01 -5.73387e-01
       H -4.65174e-01 -9.45646e-01  7.49084e-01
       L  6.06177e+01  4.00987e-01  4.03181e+00
       L -1.38170e-01  4.63633e+00 -4.47633e-01
6
# CELL(abcABC):  459.05226   459.05226   459.05226    90.00000    90.00000    90.00000  Step:           9  Bead:       0 x_centroid{angstrom}  cell{atomic_unit}
       C -3.33524e-01 -1.29296e-01  7.34933e-02
       O  8.41361e-01  2.69458e-01 -1.82065e-01
       H -7.69085e-02  8.87831e-01 -5.60966e-01
       H -4.68291e-01 -9.53600e-01  7.53910e-01
       L  6.04811e+01  4.71225e-01  4.43210e+00
       L -1.15386e-01  4.03828e+00 -5.02269e-01
6
# CELL(abcABC):  459.05226   459.05226   459.05226    90.00000    90.00000    90.00000  Step:          10  Bead:       0 x_centroid{angstrom}  cell{atomic_unit}
       C -3.33663e-01 -1.29717e-01  7.20798e-02
       O  8.41397e-01  2.70255e-01 -1.82201e-01
       H -7.32193e-02  8.91416e-01 -5.48052e-01
       H -4.70789e-01 -9.64504e-01  7.59840e-01
       L  6.02766e+01  5.28290e-01  4.82823e+00
       L -8.18761e-02  3.41154e+00 -5.97675e-01
6
# CELL(abcABC):  459.05226   459.05226   459.05226    90.00000    90.00000    90.00000  Step:          11  Bead:       0 x_centroid{angstrom}  cell{atomic_unit}
       C -3.33949e-01 -1.30068e-01  7.09999e-02
       O  8.41562e-01  2.71098e-01 -1.82594e-01
       H -7.08102e-02  8.93702e-01 -5.35296e-01
       H -4.72330e-01 -9.75650e-01  7.66054e-01
       L  6.00854e+01  5.42874e-01  5.16348e+00
       L -6.77927e-02  2.78129e+00 -6.92700e-01
6
# CELL(abcABC):  459.05226   459.05226   459.05226    90.00000    90.00000    90.00000  Step:          12  Bead:       0 x_centroid{angstrom}  cell{atomic_unit}
       C -3.34422e-01 -1.30643e-01  6.99299e-02
       O  8.41846e-01  2.72119e-01 -1.82979e-01
       H -7.09142e-02  8.95396e-01 -5.22236e-01
       H -4.70987e-01 -9.86334e-01  7.71731e-01
       L  5.99008e+01  4.67203e-01  5.47903e+00
       L -6.51350e-02  2.19116e+00 -7.77871e-01
6
# CELL(abcABC):  459.05226   459.05226   459.05226    90.00000    90.00000    90.00000  Step:          13  Bead:       0 x_centroid{angstrom}  cell{atomic_unit}
       C -3.35017e-01 -1.31316e-01  6.88567e-02
       O  8.42222e-01  2.73143e-01 -1.83240e-01
       H -7.22384e-02  8.97662e-01 -5.10435e-01
       H -4.68447e-01 -9.96509e-01  7.76796e-01
       L  5.96892e+01  4.40753e-01  5.72289e+00
       L -3.51600e-02  1.61978e+00 -9.02196e-01
6
# CELL(abcABC):  459.05226   459.05226   459.05226    90.00000    90.00000    90.00000  Step:          14  Bead:       0 x_centroid{angstrom}  cell{atomic_unit}
       C -3.35783e-01 -1.32144e-01  6.76658e-02
       O  8.42692e-01  2.74105e-01 -1.83206e-01
       H -7.49587e-02  9.00511e-01 -4.99468e-01
       H -4.64038e-01 -1.00443e+00  7.79433e-01
       L  5.95829e+01  4.02895e-01  5.89448e+00
       L  1.82371e-02  1.05542e+00 -9.91204e-01
6
# CELL(abcABC):  459.05226   459.05226   459.05226    90.00000    90.00000    90.00000  Step:          15  Bead:       0 x_centroid{angstrom}  cell{atomic_unit}
       C -3.36865e-01 -1.33512e-01  6.65259e-02
       O  8.43322e-01  2.75299e-01 -1.82951e-01
       H -7.80164e-02  9.04462e-01 -4.90180e-01
       H -4.58048e-01 -1.01070e+00  7.79617e-01
       L  5.94800e+01  3.47882e-01  6.04997e+00
       L  5.99448e-02  4.66778e-01 -1.01498e+00
6
# CELL(abcABC):  459.05226   459.05226   459.05226    90.00000    90.00000    90.00000  Step:          16  Bead:       0 x_centroid{angstrom}  cell{atomic_unit}
       C -3.37540e-01 -1.34971e-01  6.55770e-02
       O  8.43520e-01  2.76373e-01 -1.82694e-01
       H -8.02665e-02  9.09564e-01 -4.81914e-01
       H -4.50869e-01 -1.01510e+00  7.78539e-01
       L  5.93612e+01  2.38911e-01  6.10591e+00
       L  1.22992e-01 -6.81405e-02 -9.89521e-01
6
# CELL(abcABC):  459.05226   459.05226   459.05226    90.00000    90.00000    90.00000  Step:          17  Bead:       0 x_centroid{angstrom}  cell{atomic_unit}
       C -3.38290e-01 -1.36679e-01  6.48094e-02
       O  8.43762e-01  2.77439e-01 -1.82431e-01
       H -8.26434e-02  9.15719e-01 -4.73538e-01
       H -4.43337e-01 -1.01751e+00  7.75115e-01
       L  5.92120e+01  1.28361e-01  6.09222e+00
       L  1.66213e-01 -5.31190e-01 -9.47604e-01
6
# CELL(abcABC):  459.05226   459.05226   459.05226    90.00000    90.00000    90.00000  Step:          18  Bead:       0 x_centroid{angstrom}  cell{atomic_unit}
       C -3.38818e-01 -1.38441e-01  6.42452e-02
       O  8.43645e-01  2.78318e-01 -1.82100e-01
       H -8.23625e-02  9.23847e-01 -4.66448e-01
       H -4.35422e-01 -1.01828e+00  7.69482e-01
       L  5.90723e+01  2.05547e-02  6.03531e+00
       L  2.17004e-01 -1.01711e+00 -8.65039e-01
6
# CELL(abcABC):  459.05226   459.05226   459.05226    90.00000    90.00000    90.00000  Step:          19  Bead:       0 x_centroid{angstrom}  cell{atomic_unit}
       C -3.39315e-01 -1.40415e-01  6.34136e-02
       O  8.43390e-01  2.79150e-01 -1.81544e-01
       H -7.96571e-02  9.32219e-01 -4.58798e-01
       H -4.28096e-01 -1.01599e+00  7.62880e-01
       L  5.89525e+01 -1.43563e-01  5.96278e+00
       L  2.45266e-01 -1.49014e+00 -7.30297e-01
6
# CELL(abcABC):  459.05226   459.05226   459.05226    90.00000    90.00000    90.00000  Step:          20  Bead:       0 x_centroid{angstrom}  cell{atomic_unit}
       C -3.39871e-01 -1.42386e-01  6.25579e-02
       O  8.43182e-01  2.79893e-01 -1.80759e-01
       H -7.72156e-02  9.40856e-01 -4.51850e-01
       H -4.20579e-01 -1.01257e+00  7.53646e-01
       L  5.88521e+01 -3.31835e-01  5.87514e+00
       L  2.71465e-01 -1.96201e+00 -5.98108e-01
6
# CELL(abcABC):  459.05226   459.05226   459.05226    90.00000    90.00000    90.00000  Step:          21  Bead:       0 x_centroid{angstrom}  cell{atomic_unit}
       C -3.40269e-01 -1.43992e-01  6.19451e-02
       O  8.42912e-01  2.80436e-01 -1.79930e-01
       H -7.69310e-02  9.48992e-01 -4.46228e-01
       H -4.11773e-01 -1.00986e+00  7.42173e-01
       L  5.86683e+01 -5.33732e-01  5.70418e+00
       L  3.31078e-01 -2.38268e+00 -4.44033e-01
6
# CELL(abcABC):  459.05226   459.05226   459.05226    90.00000    90.00000    90.00000  Step:          22  Bead:       0 x_centroid{angstrom}  cell{atomic_unit}
       C -3.40565e-01 -1.45504e-01  6.15000e-02
       O  8.42531e-01  2.80947e-01 -1.79115e-01
       H -7.68945e-02  9.55614e-01 -4.41591e-01
       H -4.02141e-01 -1.00624e+00  7.29973e-01
       L  5.84594e+01 -7.21841e-01  5.43589e+00
       L  3.79664e-01 -2.79616e+00 -3.20880e-01
6
# CELL(abcABC):  459.05226   459.05226   459.05226    90.00000    90.00000    90.00000  Step:          23  Bead:       0 x_centroid{angstrom}  cell{atomic_unit}
       C -3.41015e-01 -1.47016e-01  6.11178e-02
       O  8.42337e-01  2.81394e-01 -1.78376e-01
       H -7.78702e-02  9.61285e-01 -4.36719e-01
       H -3.92644e-01 -1.00069e+00  7.18019e-01
       L  5.82344e+01 -9.33069e-01  5.10994e+00
       L  4.51375e-01 -3.13719e+00 -1.47550e-01
6
# CELL(abcABC):  459.05226   459.05226   459.05226    90.00000    90.00000    90.00000  Step:          24  Bead:       0 x_centroid{angstrom}  cell{atomic_unit}
       C -3.41391e-01 -1.48691e-01  6.05083e-02
       O  8.41993e-01  2.81998e-01 -1.77478e-01
       H -7.97647e-02  9.67434e-01 -4.32263e-01
       H -3.80722e-01 -9.96112e-01  7.06678e-01
       L  5.79733e+01 -1.24085e+00  4.74016e+00
       L  5.41604e-01 -3.45771e+00  1.62992e-02
6
# CELL(abcABC):  459.05226   459.05226   459.05226    90.00000    90.00000    90.00000  Step:          25  Bead:       0 x_centroid{angstrom}  cell{atomic_unit}
       C -3.42184e-01 -1.50319e-01  5.98952e-02
       O  8.41958e-01  2.82721e-01 -1.76699e-01
       H -8.13180e-02  9.72376e-01 -4.28421e-01
       H -3.69079e-01 -9.92879e-01  6.97910e-01
       L  5.77080e+01 -1.52067e+00  4.33480e+00
       L  6.69801e-01 -3.67213e+00  1.86175e-01
6
# CELL(abcABC):  459.05226   459.05226   459.05226    90.00000    90.00000    90.00000  Step:          26  Bead:       0 x_centroid{angstrom}  cell{atomic_unit}
       C -3.43261e-01 -1.51585e-01  5.89653e-02
       O  8.42106e-01  2.83378e-01 -1.75795e-01
       H -8.22940e-02  9.76464e-01 -4.24121e-01
       H -3.57520e-01 -9.92022e-01  6.90506e-01
       L  5.74149e+01 -1.77862e+00  3.85646e+00
       L  7.91180e-01 -3.93563e+00  3.61407e-01
6
# CELL(abcABC):  459.05226   459.05226   459.05226    90.00000    90.00000    90.00000  Step:          27  Bead:       0 x_centroid{angstrom}  cell{atomic_unit}
       C -3.44072e-01 -1.52595e-01  5.78958e-02
       O  8.41861e-01  2.84063e-01 -1.74965e-01
       H -8.03275e-02  9.80464e-01 -4.20063e-01
       H -3.45800e-01 -9.94596e-01  6.86191e-01
       L  5.70729e+01 -2.04019e+00  3.32913e+00
       L  8.81126e-01 -4.17872e+00  5.71191e-01
6
# CELL(abcABC):  459.05226   459.05226   459.05226    90.00000    90.00000    90.00000  Step:          28  Bead:       0 x_centroid{angstrom}  cell{atomic_unit}
       C -3.44579e-01 -1.53369e-01  5.67353e-02
       O  8.41304e-01  2.84755e-01 -1.74139e-01
       H -7.70998e-02  9.84162e-01 -4.17233e-01
       H -3.34003e-01 -9.99800e-01  6.84300e-01
       L  5.66802e+01 -2.22436e+00  2.71567e+00
       L  1.00649e+00 -4.44981e+00  7.70420e-01
6
# CELL(abcABC):  459.05226   459.05226   459.05226    90.00000    90.00000    90.00000  Step:          29  Bead:       0 x_centroid{angstrom}  cell{atomic_unit}
       C -3.45016e-01 -1.53870e-01  5.55676e-02
       O  8.40978e-01  2.85491e-01 -1.73442e-01
       H -7.64148e-02  9.86634e-01 -4.13325e-01
       H -3.24114e-01 -1.00773e+00  6.83454e-01
       L  5.62607e+01 -2.41251e+00  2.10911e+00
       L  1.07602e+00 -4.70478e+00  9.89184e-01
6
# CELL(abcABC):  459.05226   459.05226   459.05226    90.00000    90.00000    90.00000  Step:          30  Bead:       0 x_centroid{angstrom}  cell{atomic_unit}
       C -3.45382e-01 -1.54070e-01  5.42487e-02
       O  8.40849e-01  2.86279e-01 -1.72714e-01
       H -7.86287e-02  9.87098e-01 -4.08360e-01
       H -3.15271e-01 -1.01809e+00  6.82879e-01
       L  5.57973e+01 -2.60567e+00  1.49982e+00
       L  1.13725e+00 -4.95255e+00  1.18761e+00
6
# CELL(abcABC):  459.05226   459.05226   459.05226    90.00000    90.00000    90.00000  Step:          31  Bead:       0 x_centroid{angstrom}  cell{atomic_unit}
       C -3.46101e-01 -1.54195e-01  5.29828e-02
       O  8.41208e-01  2.87224e-01 -1.71953e-01
       H -8.29819e-02  9.85435e-01 -4.02611e-01
       H -3.07819e-01 -1.02968e+00  6.80429e-01
       L  5.53220e+01 -2.77211e+00  8.46221e-01
       L  1.18637e+00 -5.24647e+00  1.28534e+00
6
# CELL(abcABC):  459.05226   459.05226   459.05226    90.00000    90.00000    90.00000  Step:          32  Bead:       0 x_centroid{angstrom}  cell{atomic_unit}
       C -3.46571e-01 -1.53618e-01  5.16019e-02
       O  8.41560e-01  2.87934e-01 -1.70985e-01
       H -8.85733e-02  9.81556e-01 -3.97970e-01
       H -3.01997e-01 -1.04372e+00  6.77195e-01
       L  5.48447e+01 -2.94213e+00  2.11507e-01
       L  1.25941e+00 -5.49587e+00  1.34744e+00
6
# CELL(abcABC):  459.05226   459.05226   459.05226    90.00000    90.00000    90.00000  Step:          33  Bead:       0 x_centroid{angstrom}  cell{atomic_unit}
       C -3.46730e-01 -1.53161e-01  5.01894e-02
       O  8.41575e-01  2.88719e-01 -1.69970e-01
       H -9.28475e-02  9.77366e-01 -3.92746e-01
       H -2.95835e-01 -1.05721e+00  6.73029e-01
       L  5.43692e+01 -3.07608e+00 -4.38851e-01
       L  1.30702e+00 -5.77870e+00  1.37879e+00
6
# CELL(abcABC):  459.05226   459.05226   459.05226    90.00000    90.00000    90.00000  Step:          34  Bead:       0 x_centroid{angstrom}  cell{atomic_unit}
       C -3.46379e-01 -1.53001e-01  4.88151e-02
       O  8.41054e-01  2.89755e-01 -1.68921e-01
       H -9.48018e-02  9.74007e-01 -3.88669e-01
       H -2.89553e-01 -1.07201e+00  6.68976e-01
       L  5.39235e+01 -3.16693e+00 -1.03964e+00
       L  1.29782e+00 -6.03431e+00  1.41491e+00
6
# CELL(abcABC):  459.05226   459.05226   459.05226    90.00000    90.00000    90.00000  Step:          35  Bead:       0 x_centroid{angstrom}  cell{atomic_unit}
       C -3.45827e-01 -1.52644e-01  4.73081e-02
       O  8.40214e-01  2.90588e-01 -1.67670e-01
       H -9.21951e-02  9.70806e-01 -3.85259e-01
       H -2.85187e-01 -1.08617e+00  6.63944e-01
       L  5.35604e+01 -3.23034e+00 -1.58965e+00
       L  1.29396e+00 -6.19645e+00  1.46560e+00
6
# CELL(abcABC):  459.05226   459.05226   459.05226    90.00000    90.00000    90.00000  Step:          36  Bead:       0 x_centroid{angstrom}  cell{atomic_unit}
       C -3.44848e-01 -1.52767e-01  4.59930e-02
       O  8.38994e-01  2.91507e-01 -1.66311e-01
       H -8.68015e-02  9.70666e-01 -3.84150e-01
       H -2.82657e-01 -1.09906e+00  6.57171e-01
       L  5.31899e+01 -3.26790e+00 -2.12218e+00
       L  1.24230e+00 -6.33217e+00  1.55916e+00
6
# CELL(abcABC):  459.05226   459.05226   459.05226    90.00000    90.00000    90.00000  Step:          37  Bead:       0 x_centroid{angstrom}  cell{atomic_unit}
       C -3.43820e-01 -1.53160e-01  4.51195e-02
       O  8.37952e-01  2.92402e-01 -1.65116e-01
       H -8.21062e-02  9.70576e-01 -3.84229e-01
       H -2.82786e-01 -1.10838e+00  6.48891e-01
       L  5.27934e+01 -3.31543e+00 -2.59636e+00
       L  1.13001e+00 -6.48049e+00  1.65110e+00
6
# CELL(abcABC):  459.05226   459.05226   459.05226    90.00000    90.00000    90.00000  Step:          38  Bead:       0 x_centroid{angstrom}  cell{atomic_unit}
       C -3.42927e-01 -1.53663e-01  4.46644e-02
       O  8.37249e-01  2.93217e-01 -1.64007e-01
       H -7.97727e-02  9.70943e-01 -3.85270e-01
       H -2.84295e-01 -1.11562e+00  6.37909e-01
       L  5.23223e+01 -3.32609e+00 -2.95190e+00
       L  1.03431e+00 -6.61401e+00  1.72417e+00
6
# CELL(abcABC):  459.05226   459.05226   459.05226    90.00000    90.00000    90.00000  Step:          39  Bead:       0 x_centroid{angstrom}  cell{atomic_unit}
       C -3.42236e-01 -1.54388e-01  4.42957e-02
       O  8.36986e-01  2.94135e-01 -1.62954e-01
       H -7.97837e-02  9.71452e-01 -3.85549e-01
       H -2.87992e-01 -1.12202e+00  6.25932e-01
       L  5.17769e+01 -3.30452e+00 -3.21188e+00
       L  9.42754e-01 -6.70951e+00  1.85987e+00
6
# CELL(abcABC):  459.05226   459.05226   459.05226    90.00000    90.00000    90.00000  Step:          40  Bead:       0 x_centroid{angstrom}  cell{atomic_unit}
       C -3.41559e-01 -1.55128e-01  4.41562e-02
       O  8.36916e-01  2.94802e-01 -1.61922e-01
       H -8.00151e-02  9.73395e-01 -3.86009e-01
       H -2.94377e-01 -1.12566e+00  6.11676e-01
       L  5.12290e+01 -3.30347e+00 -3.38029e+00
       L  8.63542e-01 -6.84444e+00  2.04357e+00
6
# CELL(abcABC):  459.05226   459.05226   459.05226    90.00000    90.00000    90.00000  Step:          41  Bead:       0 x_centroid{angstrom}  cell{atomic_unit}
       C -3.40807e-01 -1.56148e-01  4.40922e-02
       O  8.36779e-01  2.95578e-01 -1.60793e-01
       H -7.90821e-02  9.76237e-01 -3.87077e-01
       H -3.01780e-01 -1.12861e+00  5.95533e-01
       L  5.07034e+01 -3.25194e+00 -3.47535e+00
       L  8.14140e-01 -7.00533e+00  2.20687e+00
6
# CELL(abcABC):  459.05226   459.05226   459.05226    90.00000    90.00000    90.00000  Step:          42  Bead:       0 x_centroid{angstrom}  cell{atomic_unit}
       C -3.39964e-01 -1.57868e-01  4.39729e-02
       O  8.36499e-01  2.96730e-01 -1.59593e-01
       H -7.71579e-02  9.79936e-01 -3.88973e-01
       H -3.08974e-01 -1.13008e+00  5.79763e-01
       L  5.01335e+01 -3.14152e+00 -3.49033e+00
       L  7.54768e-01 -7.14744e+00  2.31382e+00
6
# CELL(abcABC):  459.05226   459.05226   459.05226    90.00000    90.00000    90.00000  Step:          43  Bead:       0 x_centroid{angstrom}  cell{atomic_unit}
       C -3.39069e-01 -1.59767e-01  4.37754e-02
       O  8.36091e-01  2.97961e-01 -1.58326e-01
       H -7.22944e-02  9.84781e-01 -3.90855e-01
       H -3.17627e-01 -1.13188e+00  5.63845e-01
       L  4.94824e+01 -2.97871e+00 -3.51524e+00
       L  6.97306e-01 -7.21430e+00  2.40792e+00
6
# CELL(abcABC):  459.05226   459.05226   459.05226    90.00000    90.00000    90.00000  Step:          44  Bead:       0 x_centroid{angstrom}  cell{atomic_unit}
       C -3.38093e-01 -1.61689e-01  4.35665e-02
       O  8.35573e-01  2.99170e-01 -1.56994e-01
       H -6.59614e-02  9.90977e-01 -3.93894e-01
       H -3.27007e-01 -1.13440e+00  5.48170e-01
       L  4.88812e+01 -2.85633e+00 -3.47709e+00
       L  6.21780e-01 -7.25315e+00  2.47495e+00
6
# CELL(abcABC):  459.05226   459.05226   459.05226    90.00000    90.00000    90.00000  Step:          45  Bead:       0 x_centroid{angstrom}  cell{atomic_unit}
       C -3.37376e-01 -1.63634e-01  4.34578e-02
       O  8.35077e-01  3.00321e-01 -1.55699e-01
       H -5.58132e-02  9.98788e-01 -3.98007e-01
       H -3.37472e-01 -1.13739e+00  5.32957e-01
       L  4.82630e+01 -2.73602e+00 -3.43379e+00
       L  5.88442e-01 -7.25941e+00  2.56110e+00
6
# CELL(abcABC):  459.05226   459.05226   459.05226    90.00000    90.00000    90.00000  Step:          46  Bead:       0 x_centroid{angstrom}  cell{atomic_unit}
       C -3.36463e-01 -1.65922e-01  4.30305e-02
       O  8.34389e-01  3.01887e-01 -1.54202e-01
       H -4.59972e-02  1.00688e+00 -4.01515e-01
       H -3.46903e-01 -1.14317e+00  5.17759e-01
       L  4.76081e+01 -2.57841e+00 -3.39741e+00
       L  6.10159e-01 -7.22991e+00  2.57745e+00
6
# CELL(abcABC):  459.05226   459.05226   459.05226    90.00000    90.00000    90.00000  Step:          47  Bead:       0 x_centroid{angstrom}  cell{atomic_unit}
       C -3.35943e-01 -1.68440e-01  4.27292e-02
       O  8.34154e-01  3.03581e-01 -1.52782e-01
       H -3.72423e-02  1.01539e+00 -4.05114e-01
       H -3.57784e-01 -1.14868e+00  5.02368e-01
       L  4.69506e+01 -2.38740e+00 -3.29780e+00
       L  6.62298e-01 -7.21101e+00  2.57519e+00
6
# CELL(abcABC):  459.05226   459.05226   459.05226    90.00000    90.00000    90.00000  Step:          48  Bead:       0 x_centroid{angstrom}  cell{atomic_unit}
       C -3.36019e-01 -1.70758e-01  4.25115e-02
       O  8.34671e-01  3.05318e-01 -1.51524e-01
       H -3.35795e-02  1.02153e+00 -4.07794e-01
       H -3.68404e-01 -1.15488e+00  4.87601e-01
       L  4.62425e+01 -2.17911e+00 -3.16023e+00
       L  7.21293e-01 -7.18908e+00  2.55429e+00
6
# CELL(abcABC):  459.05226   459.05226   459.05226    90.00000    90.00000    90.00000  Step:          49  Bead:       0 x_centroid{angstrom}  cell{atomic_unit}
       C -3.36752e-01 -1.73138e-01  4.23857e-02
       O  8.35871e-01  3.07239e-01 -1.50435e-01
       H -3.25196e-02  1.02550e+00 -4.08735e-01
       H -3.79391e-01 -1.16115e+00  4.72705e-01
       L  4.54661e+01 -1.94517e+00 -2.97518e+00
       L  7.97875e-01 -7.13677e+00  2.45581e+00
6
# CELL(abcABC):  459.05226   459.05226   459.05226    90.00000    90.00000    90.00000  Step:          50  Bead:       0 x_centroid{angstrom}  cell{atomic_unit}
       C -3.38113e-01 -1.75443e-01  4.23276e-02
       O  8.37491e-01  3.09300e-01 -1.49454e-01
       H -3.20706e-02  1.02747e+00 -4.09438e-01
       H -3.88936e-01 -1.16854e+00  4.58469e-01
       L  4.46341e+01 -1.69804e+00 -2.76169e+00
       L  8.74823e-01 -7.06577e+00  2.35052e+00
6
# CELL(abcABC):  459.05226   459.05226   459.05226    90.00000    90.00000    90.00000  Step:          51  Bead:       0 x_centroid{angstrom}  cell{atomic_unit}
       C -3.39786e-01 -1.77595e-01  4.23038e-02
       O  8.39193e-01  3.11377e-01 -1.48488e-01
       H -2.95204e-02  1.02819e+00 -4.10104e-01
       H -3.98135e-01 -1.17679e+00  4.44038e-01
       L  4.37456e+01 -1.40875e+00 -2.52665e+00
       L  9.67012e-01 -6.99856e+00  2.22187e+00
6
# CELL(abcABC):  459.05226   459.05226   459.05226    90.00000    90.00000    90.00000  Step:          52  Bead:       0 x_centroid{angstrom}  cell{atomic_unit}
       C -3.41551e-01 -1.79661e-01  4.22857e-02
       O  8.40614e-01  3.13548e-01 -1.47562e-01
       H -2.16325e-02  1.02899e+00 -4.11277e-01
       H -4.07143e-01 -1.18767e+00  4.30699e-01
       L  4.28641e+01 -1.07715e+00 -2.31914e+00
       L  1.11692e+00 -6.88943e+00  2.05438e+00
6
# CELL(abcABC):  459.05226   459.05226   459.05226    90.00000    90.00000    90.00000  Step:          53  Bead:       0 x_centroid{angstrom}  cell{atomic_unit}
       C -3.43321e-01 -1.81514e-01  4.24094e-02
       O  8.41695e-01  3.15602e-01 -1.46884e-01
       H -9.09732e-03  1.03030e+00 -4.12470e-01
       H -4.15298e-01 -1.19980e+00  4.19590e-01
       L  4.19350e+01 -7.10044e-01 -2.07768e+00
       L  1.23128e+00 -6.69606e+00  1.94033e+00
6
# CELL(abcABC):  459.05226   459.05226   459.05226    90.00000    90.00000    90.00000  Step:          54  Bead:       0 x_centroid{angstrom}  cell{atomic_unit}
       C -3.45145e-01 -1.83562e-01  4.26902e-02
       O  8.42354e-01  3.17863e-01 -1.46450e-01
       H  8.36743e-03  1.03240e+00 -4.13236e-01
       H -4.21059e-01 -1.21372e+00  4.10045e-01
       L  4.10103e+01 -3.41786e-01 -1.80163e+00
       L  1.35809e+00 -6.45762e+00  1.81113e+00
6
# CELL(abcABC):  459.05226   459.05226   459.05226    90.00000    90.00000    90.00000  Step:          55  Bead:       0 x_centroid{angstrom}  cell{atomic_unit}
       C -3.46897e-01 -1.85461e-01  4.28783e-02
       O  8.42720e-01  3.19940e-01 -1.46136e-01
       H  2.86846e-02  1.03517e+00 -4.13033e-01
       H -4.25846e-01 -1.22714e+00  4.02515e-01
       L  4.00365e+01  2.01665e-02 -1.49654e+00
       L  1.48953e+00 -6.26359e+00  1.68242e+00
6
# CELL(abcABC):  459.05226   459.05226   459.05226    90.00000    90.00000    90.00000  Step:          56  Bead:       0 x_centroid{angstrom}  cell{atomic_unit}
       C -3.49348e-01 -1.87358e-01  4.28814e-02
       O  8.43591e-01  3.22033e-01 -1.45757e-01
       H  4.93807e-02  1.03771e+00 -4.11810e-01
       H -4.30652e-01 -1.24062e+00  3.95132e-01
       L  3.89829e+01  4.20431e-01 -1.14779e+00
       L  1.61603e+00 -6.06994e+00  1.53290e+00
6
# CELL(abcABC):  459.05226   459.05226   459.05226    90.00000    90.00000    90.00000  Step:          57  Bead:       0 x_centroid{angstrom}  cell{atomic_unit}
       C -3.52722e-01 -1.89241e-01  4.28477e-02
       O  8.45312e-01  3.24235e-01 -1.45290e-01
       H  6.82834e-02  1.03797e+00 -4.10727e-01
       H -4.36132e-01 -1.25371e+00  3.86951e-01
       L  3.78480e+01  7.89354e-01 -8.36786e-01
       L  1.75642e+00 -5.84156e+00  1.38507e+00
6
# CELL(abcABC):  459.05226   459.05226   459.05226    90.00000    90.00000    90.00000  Step:          58  Bead:       0 x_centroid{angstrom}  cell{atomic_unit}
       C -3.57264e-01 -1.91579e-01  4.25640e-02
       O  8.47962e-01  3.26716e-01 -1.44719e-01
       H  8.56896e-02  1.03664e+00 -4.08944e-01
       H -4.40897e-01 -1.26423e+00  3.79361e-01
       L  3.66639e+01  1.15370e+00 -4.78428e-01
       L  1.85891e+00 -5.61959e+00  1.25624e+00
6
# CELL(abcABC):  459.05226   459.05226   459.05226    90.00000    90.00000    90.00000  Step:          59  Bead:       0 x_centroid{angstrom}  cell{atomic_unit}
       C -3.62771e-01 -1.94275e-01  4.23219e-02
       O  8.51261e-01  3.29307e-01 -1.44227e-01
       H  1.01460e-01  1.03509e+00 -4.06435e-01
       H -4.42782e-01 -1.27198e+00  3.71786e-01
       L  3.53981e+01  1.46360e+00 -7.38473e-02
       L  1.95756e+00 -5.36686e+00  1.10329e+00
6
# CELL(abcABC):  459.05226   459.05226   459.05226    90.00000    90.00000    90.00000  Step:          60  Bead:       0 x_centroid{angstrom}  cell{atomic_unit}
       C -3.69214e-01 -1.97213e-01  4.22060e-02
       O  8.55248e-01  3.31868e-01 -1.43921e-01
       H  1.17466e-01  1.03498e+00 -4.02985e-01
       H -4.44571e-01 -1.27785e+00  3.64773e-01
       L  3.39977e+01  1.75298e+00  2.94527e-01
       L  2.03473e+00 -5.03936e+00  8.94387e-01
6
# CELL(abcABC):  459.05226   459.05226   459.05226    90.00000    90.00000    90.00000  Step:          61  Bead:       0 x_centroid{angstrom}  cell{atomic_unit}
       C -3.75982e-01 -2.00610e-01  4.19008e-02
       O  8.59144e-01  3.34409e-01 -1.43478e-01
       H  1.36693e-01  1.03935e+00 -3.99365e-01
       H -4.44221e-01 -1.28241e+00  3.57692e-01
       L  3.25770e+01  1.98429e+00  6.45108e-01
       L  2.03159e+00 -4.65558e+00  6.68983e-01
6
# CELL(abcABC):  459.05226   459.05226   459.05226    90.00000    90.00000    90.00000  Step:          62  Bead:       0 x_centroid{angstrom}  cell{atomic_unit}
       C -3.83017e-01 -2.04238e-01  4.13645e-02
       O  8.62789e-01  3.36871e-01 -1.42855e-01
       H  1.59955e-01  1.04776e+00 -3.95850e-01
       H -4.40665e-01 -1.28695e+00  3.50609e-01
       L  3.10898e+01  2.08163e+00  9.69306e-01
       L  1.96622e+00 -4.21497e+00  4.55387e-01
6
# CELL(abcABC):  459.05226   459.05226   459.05226    90.00000    90.00000    90.00000  Step:          63  Bead:       0 x_centroid{angstrom}  cell{atomic_unit}
       C -3.90286e-01 -2.08034e-01  4.07024e-02
       O  8.66013e-01  3.39059e-01 -1.42150e-01
       H  1.89258e-01  1.06193e+00 -3.93375e-01
       H -4.33617e-01 -1.29097e+00  3.44817e-01
       L  2.96011e+01  2.13143e+00  1.22765e+00
       L  1.80747e+00 -3.64908e+00  2.52253e-01
6
# CELL(abcABC):  459.05226   459.05226   459.05226    90.00000    90.00000    90.00000  Step:          64  Bead:       0 x_centroid{angstrom}  cell{atomic_unit}
       C -3.97629e-01 -2.11944e-01  4.00679e-02
       O  8.68762e-01  3.41126e-01 -1.41479e-01
       H  2.23511e-01  1.08058e+00 -3.91600e-01
       H -4.23099e-01 -1.29620e+00  3.39934e-01
       L  2.80831e+01  2.14970e+00  1.46848e+00
       L  1.64431e+00 -2.99456e+00  4.72864e-02
6
# CELL(abcABC):  459.05226   459.05226   459.05226    90.00000    90.00000    90.00000  Step:          65  Bead:       0 x_centroid{angstrom}  cell{atomic_unit}
       C -4.04988e-01 -2.15843e-01  3.92354e-02
       O  8.70976e-01  3.42959e-01 -1.40720e-01
       H  2.62612e-01  1.10256e+00 -3.89981e-01
       H -4.08718e-01 -1.30116e+00  3.36176e-01
       L  2.65424e+01  2.15135e+00  1.74982e+00
       L  1.45862e+00 -2.35980e+00 -2.18031e-01
6
# CELL(abcABC):  459.05226   459.05226   459.05226    90.00000    90.00000    90.00000  Step:          66  Bead:       0 x_centroid{angstrom}  cell{atomic_unit}
       C -4.12608e-01 -2.20064e-01  3.85841e-02