6
# CELL(abcABC):  459.05226   459.05226   459.05226    90.00000    90.00000    90.00000  Step:           0  Bead:       0 x_centroid{angstrom}  cell{atomic_unit}
       C -3.39887e-01 -1.13437e-01  8.06659e-02
       O  8.43483e-01  2.62672e-01 -1.81512e-01
       H -7.35799e-02  8.16467e-01 -6.61432e-01
       H -4.30016e-01 -9.65701e-01  7.62278e-01
       L  6.13458e+01  0.00000e+00  0.00000e+00
       L  0.00000e+00  8.59064e+00  0.00000e+00
6
# CELL(abcABC):  459.05226   459.05226   459.05226    90.00000    90.00000    90.00000  Step:           1  Bead:       0 x_centroid{angstrom}  cell{atomic_unit}
       C -3.43282e-01 -1.14332e-01  7.99100e-02
       O  8.45710e-01  2.63957e-01 -1.81220e-01
       H -7.42805e-02  8.13481e-01 -6.59990e-01
       H -4.24290e-01 -9.72421e-01  7.65440e-01
       L  6.17370e+01 -2.62296e-01 -7.22125e-01
       L -2.55117e-01  8.80515e+00  2.97668e-01
6
# CELL(abcABC):  459.05226   459.05226   459.05226    90.00000    90.00000    90.00000  Step:           2  Bead:       0 x_centroid{angstrom}  cell{atomic_unit}
       C -3.46649e-01 -1.15285e-01  7.91035e-02
       O  8.47833e-01  2.65152e-01 -1.80798e-01
       H -7.37988e-02  8.12164e-01 -6.59328e-01
       H -4.18425e-01 -9.78726e-01  7.67854e-01
       L  6.21555e+01 -5.34528e-01 -1.39684e+00
       L -5.39490e-01  9.08446e+00  6.43149e-01
6
# CELL(abcABC):  459.05226   459.05226   459.05226    90.00000    90.00000    90.00000  Step:           3  Bead:       0 x_centroid{angstrom}  cell{atomic_unit}
       C -3.49659e-01 -1.16320e-01  7.78752e-02
       O  8.49667e-01  2.66313e-01 -1.80064e-01
       H -7.13291e-02  8.12351e-01 -6.58199e-01
       H -4.14172e-01 -9.85008e-01  7.69866e-01
       L  6.25360e+01 -8.13833e-01 -2.01918e+00
       L -8.43659e-01  9.36790e+00  9.89421e-01
6
# CELL(abcABC):  459.05226   459.05226   459.05226    90.00000    90.00000    90.00000  Step:           4  Bead:       0 x_centroid{angstrom}  cell{atomic_unit}
       C -3.52581e-01 -1.17304e-01  7.67372e-02
       O  8.51429e-01  2.67346e-01 -1.79273e-01
       H -6.86808e-02  8.12997e-01 -6.58005e-01
       H -4.09991e-01 -9.90315e-01  7.70803e-01
       L  6.29134e+01 -1.15467e+00 -2.59548e+00
       L -1.15599e+00  9.67998e+00  1.32860e+00
6
# CELL(abcABC):  459.05226   459.05226   459.05226    90.00000    90.00000    90.00000  Step:           5  Bead:       0 x_centroid{angstrom}  cell{atomic_unit}
       C -3.55218e-01 -1.18779e-01  7.55362e-02
       O  8.52912e-01  2.68678e-01 -1.78352e-01
       H -6.42890e-02  8.13903e-01 -6.58122e-01
       H -4.06519e-01 -9.94843e-01  7.70753e-01
       L  6.32380e+01 -1.40921e+00 -3.13435e+00
       L -1.46839e+00  1.00494e+01  1.62744e+00
6
# CELL(abcABC):  459.05226   459.05226   459.05226    90.00000    90.00000    90.00000  Step:           6  Bead:       0 x_centroid{angstrom}  cell{atomic_unit}
       C -3.57744e-01 -1.20455e-01  7.45132e-02
       O  8.54355e-01  2.70020e-01 -1.77439e-01
       H -5.97291e-02  8.15235e-01 -6.58128e-01
       H -4.03920e-01 -9.97599e-01  7.68614e-01
       L  6.35410e+01 -1.60183e+00 -3.67021e+00
       L -1.71330e+00  1.04005e+01  1.87644e+00
6
# CELL(abcABC):  459.05226   459.05226   459.05226    90.00000    90.00000    90.00000  Step:           7  Bead:       0 x_centroid{angstrom}  cell{atomic_unit}
       C -3.60179e-01 -1.22333e-01  7.35788e-02
       O  8.55866e-01  2.71451e-01 -1.76505e-01
       H -5.67333e-02  8.15763e-01 -6.56923e-01
       H -4.01910e-01 -9.98534e-01  7.63845e-01
       L  6.37916e+01 -1.79333e+00 -4.09377e+00
       L -1.92436e+00  1.07007e+01  2.03881e+00
6
# CELL(abcABC):  459.05226   459.05226   459.05226    90.00000    90.00000    90.00000  Step:           8  Bead:       0 x_centroid{angstrom}  cell{atomic_unit}
       C -3.62231e-01 -1.24193e-01  7.29203e-02
       O  8.57301e-01  2.72803e-01 -1.75670e-01
       H -5.56070e-02  8.15630e-01 -6.56598e-01
       H -4.01425e-01 -9.97731e-01  7.58244e-01
       L  6.40819e+01 -1.98509e+00 -4.49096e+00
       L -2.09399e+00  1.09665e+01  2.19674e+00
6
# CELL(abcABC):  459.05226   459.05226   459.05226    90.00000    90.00000    90.00000  Step:           9  Bead:       0 x_centroid{angstrom}  cell{atomic_unit}
       C -3.64179e-01 -1.26088e-01  7.20768e-02
       O  8.58713e-01  2.74130e-01 -1.74652e-01
       H -5.45650e-02  8.14134e-01 -6.56411e-01
       H -4.01747e-01 -9.94784e-01  7.52098e-01
       L  6.43627e+01 -2.17077e+00 -4.91514e+00
       L -2.19925e+00  1.12629e+01  2.36138e+00
6
# CELL(abcABC):  459.05226   459.05226   459.05226    90.00000    90.00000    90.00000  Step:          10  Bead:       0 x_centroid{angstrom}  cell{atomic_unit}
       C -3.65436e-01 -1.28151e-01  7.11071e-02
       O  8.59482e-01  2.75401e-01 -1.73608e-01
       H -5.27460e-02  8.14797e-01 -6.55407e-01
       H -4.00972e-01 -9.91126e-01  7.46190e-01
       L  6.46915e+01 -2.30784e+00 -5.30641e+00
       L -2.21292e+00  1.15668e+01  2.54568e+00
6
# CELL(abcABC):  459.05226   459.05226   459.05226    90.00000    90.00000    90.00000  Step:          11  Bead:       0 x_centroid{angstrom}  cell{atomic_unit}
       C -3.66463e-01 -1.29897e-01  7.03449e-02
       O  8.60106e-01  2.76460e-01 -1.72763e-01
       H -5.00756e-02  8.15937e-01 -6.54483e-01
       H -4.01503e-01 -9.88329e-01  7.40987e-01
       L  6.50399e+01 -2.47536e+00 -5.61942e+00
       L -2.21512e+00  1.18533e+01  2.76766e+00
6
# CELL(abcABC):  459.05226   459.05226   459.05226    90.00000    90.00000    90.00000  Step:          12  Bead:       0 x_centroid{angstrom}  cell{atomic_unit}
       C -3.67113e-01 -1.31788e-01  6.98994e-02
       O  8.60433e-01  2.77535e-01 -1.72037e-01
       H -4.74034e-02  8.18678e-01 -6.54238e-01
       H -4.01847e-01 -9.85669e-01  7.34609e-01
       L  6.54302e+01 -2.61378e+00 -5.93790e+00
       L -2.20173e+00  1.21308e+01  2.93084e+00
6
# CELL(abcABC):  459.05226   459.05226   459.05226    90.00000    90.00000    90.00000  Step:          13  Bead:       0 x_centroid{angstrom}  cell{atomic_unit}
       C -3.67506e-01 -1.33625e-01  6.91135e-02
       O  8.60594e-01  2.78542e-01 -1.71183e-01
       H -4.39136e-02  8.22601e-01 -6.53264e-01
       H -4.03365e-01 -9.83788e-01  7.29489e-01
       L  6.57491e+01 -2.72764e+00 -6.17279e+00
       L -2.21536e+00  1.24181e+01  3.08963e+00
6
# CELL(abcABC):  459.05226   459.05226   459.05226    90.00000    90.00000    90.00000  Step:          14  Bead:       0 x_centroid{angstrom}  cell{atomic_unit}
       C -3.67649e-01 -1.35350e-01  6.84897e-02
       O  8.60750e-01  2.79579e-01 -1.70342e-01
       H -4.25829e-02  8.25693e-01 -6.53335e-01
       H -4.05646e-01 -9.82935e-01  7.23660e-01
       L  6.60344e+01 -2.83201e+00 -6.33211e+00
       L -2.18307e+00  1.28005e+01  3.19980e+00
6
# CELL(abcABC):  459.05226   459.05226   459.05226    90.00000    90.00000    90.00000  Step:          15  Bead:       0 x_centroid{angstrom}  cell{atomic_unit}
       C -3.67491e-01 -1.36801e-01  6.77714e-02
       O  8.60874e-01  2.80431e-01 -1.69420e-01
       H -4.28995e-02  8.30002e-01 -6.53778e-01
       H -4.09420e-01 -9.83686e-01  7.18036e-01
       L  6.63233e+01 -2.82873e+00 -6.43423e+00
       L -2.03380e+00  1.31829e+01  3.30865e+00
6
# CELL(abcABC):  459.05226   459.05226   459.05226    90.00000    90.00000    90.00000  Step:          16  Bead:       0 x_centroid{angstrom}  cell{atomic_unit}
       C -3.67193e-01 -1.37966e-01  6.68353e-02
       O  8.61048e-01  2.81222e-01 -1.68536e-01
       H -4.41207e-02  8.33765e-01 -6.52935e-01
       H -4.14754e-01 -9.86302e-01  7.14292e-01
       L  6.65932e+01 -2.83025e+00 -6.49922e+00
       L -1.87158e+00  1.35055e+01  3.41813e+00
6
# CELL(abcABC):  459.05226   459.05226   459.05226    90.00000    90.00000    90.00000  Step:          17  Bead:       0 x_centroid{angstrom}  cell{atomic_unit}
       C -3.66373e-01 -1.39122e-01  6.55370e-02
       O  8.61002e-01  2.82110e-01 -1.67452e-01
       H -4.69566e-02  8.37696e-01 -6.51404e-01
       H -4.21128e-01 -9.90759e-01  7.10967e-01
       L  6.67649e+01 -2.80788e+00 -6.45462e+00
       L -1.72129e+00  1.38395e+01  3.46501e+00
6
# CELL(abcABC):  459.05226   459.05226   459.05226    90.00000    90.00000    90.00000  Step:          18  Bead:       0 x_centroid{angstrom}  cell{atomic_unit}
       C -3.65226e-01 -1.39945e-01  6.40358e-02
       O  8.60888e-01  2.82893e-01 -1.66261e-01
       H -5.13437e-02  8.40741e-01 -6.48581e-01
       H -4.28738e-01 -9.96554e-01  7.07094e-01
       L  6.68937e+01 -2.83256e+00 -6.39003e+00
       L -1.58598e+00  1.41283e+01  3.46196e+00
6
# CELL(abcABC):  459.05226   459.05226   459.05226    90.00000    90.00000    90.00000  Step:          19  Bead:       0 x_centroid{angstrom}  cell{atomic_unit}
       C -3.63830e-01 -1.40920e-01  6.22812e-02
       O  8.60533e-01  2.83969e-01 -1.64978e-01
       H -5.44846e-02  8.42116e-01 -6.44730e-01
       H -4.36753e-01 -1.00354e+00  7.03773e-01
       L  6.69982e+01 -2.84642e+00 -6.32194e+00
       L -1.38544e+00  1.43973e+01  3.41329e+00
6
# CELL(abcABC):  459.05226   459.05226   459.05226    90.00000    90.00000    90.00000  Step:          20  Bead:       0 x_centroid{angstrom}  cell{atomic_unit}
       C -3.62394e-01 -1.41612e-01  6.03550e-02
       O  8.60069e-01  2.85002e-01 -1.63717e-01
       H -5.69963e-02  8.42053e-01 -6.39402e-01
       H -4.44178e-01 -1.01175e+00  7.01362e-01
       L  6.70879e+01 -2.84738e+00 -6.26175e+00
       L -1.14011e+00  1.46186e+01  3.39691e+00
6
# CELL(abcABC):  459.05226   459.05226   459.05226    90.00000    90.00000    90.00000  Step:          21  Bead:       0 x_centroid{angstrom}  cell{atomic_unit}
       C -3.60911e-01 -1.42313e-01  5.84826e-02
       O  8.59359e-01  2.86257e-01 -1.62557e-01
       H -5.81434e-02  8.39514e-01 -6.33326e-01
       H -4.49667e-01 -1.02089e+00  6.99131e-01
       L  6.71988e+01 -2.88015e+00 -6.15384e+00
       L -8.21206e-01  1.48645e+01  3.38149e+00
6
# CELL(abcABC):  459.05226   459.05226   459.05226    90.00000    90.00000    90.00000  Step:          22  Bead:       0 x_centroid{angstrom}  cell{atomic_unit}
       C -3.59064e-01 -1.43122e-01  5.66003e-02
       O  8.58248e-01  2.87575e-01 -1.61391e-01
       H -5.80587e-02  8.35512e-01 -6.26851e-01
       H -4.54363e-01 -1.02828e+00  6.96483e-01
       L  6.72947e+01 -2.87469e+00 -5.95855e+00
       L -4.86932e-01  1.50686e+01  3.34937e+00
6
# CELL(abcABC):  459.05226   459.05226   459.05226    90.00000    90.00000    90.00000  Step:          23  Bead:       0 x_centroid{angstrom}  cell{atomic_unit}
       C -3.57018e-01 -1.44009e-01  5.48430e-02
       O  8.56834e-01  2.88847e-01 -1.60262e-01
       H -5.61261e-02  8.32561e-01 -6.20117e-01
       H -4.58431e-01 -1.03510e+00  6.92669e-01
       L  6.73423e+01 -2.83766e+00 -5.68919e+00
       L -1.46328e-01  1.53131e+01  3.27215e+00
6
# CELL(abcABC):  459.05226   459.05226   459.05226    90.00000    90.00000    90.00000  Step:          24  Bead:       0 x_centroid{angstrom}  cell{atomic_unit}
       C -3.54534e-01 -1.44961e-01  5.29238e-02
       O  8.55181e-01  2.90070e-01 -1.59019e-01
       H -5.61298e-02  8.30204e-01 -6.12435e-01
       H -4.62038e-01 -1.04093e+00  6.87947e-01
       L  6.73917e+01 -2.83409e+00 -5.31815e+00
       L  2.29409e-01  1.55351e+01  3.24098e+00
6
# CELL(abcABC):  459.05226   459.05226   459.05226    90.00000    90.00000    90.00000  Step:          25  Bead:       0 x_centroid{angstrom}  cell{atomic_unit}
       C -3.51912e-01 -1.46011e-01  5.09663e-02
       O  8.53538e-01  2.91218e-01 -1.57740e-01
       H -5.75342e-02  8.29766e-01 -6.04175e-01
       H -4.66005e-01 -1.04635e+00  6.82474e-01
       L  6.74208e+01 -2.83014e+00 -4.89903e+00
       L  5.95016e-01  1.57724e+01  3.23634e+00
6
# CELL(abcABC):  459.05226   459.05226   459.05226    90.00000    90.00000    90.00000  Step:          26  Bead:       0 x_centroid{angstrom}  cell{atomic_unit}
       C -3.49479e-01 -1.46925e-01  4.87308e-02
       O  8.52171e-01  2.92236e-01 -1.56165e-01
       H -6.22423e-02  8.29150e-01 -5.96164e-01
       H -4.68767e-01 -1.05110e+00  6.75858e-01
       L  6.74375e+01 -2.81229e+00 -4.46353e+00
       L  9.04175e-01  1.59399e+01  3.25970e+00
6
# CELL(abcABC):  459.05226   459.05226   459.05226    90.00000    90.00000    90.00000  Step:          27  Bead:       0 x_centroid{angstrom}  cell{atomic_unit}
       C -3.46980e-01 -1.47782e-01  4.64121e-02
       O  8.50971e-01  2.93077e-01 -1.54442e-01
       H -7.06653e-02  8.30195e-01 -5.88847e-01
       H -4.71208e-01 -1.05541e+00  6.68565e-01
       L  6.74167e+01 -2.77062e+00 -4.00167e+00
       L  1.17526e+00  1.61392e+01  3.28030e+00
6
# CELL(abcABC):  459.05226   459.05226   459.05226    90.00000    90.00000    90.00000  Step:          28  Bead:       0 x_centroid{angstrom}  cell{atomic_unit}
       C -3.44301e-01 -1.48535e-01  4.36866e-02
       O  8.49625e-01  2.93739e-01 -1.52174e-01
       H -7.98827e-02  8.31063e-01 -5.84252e-01
       H -4.72673e-01 -1.05798e+00  6.60184e-01
       L  6.73787e+01 -2.67782e+00 -3.54379e+00
       L  1.45655e+00  1.63594e+01  3.28809e+00
6
# CELL(abcABC):  459.05226   459.05226   459.05226    90.00000    90.00000    90.00000  Step:          29  Bead:       0 x_centroid{angstrom}  cell{atomic_unit}
       C -3.41369e-01 -1.49339e-01  4.08584e-02
       O  8.47883e-01  2.94213e-01 -1.49801e-01
       H -8.73024e-02  8.35478e-01 -5.79986e-01
       H -4.72644e-01 -1.06056e+00  6.51705e-01
       L  6.73262e+01 -2.54425e+00 -3.04604e+00
       L  1.68168e+00  1.66244e+01  3.24893e+00
6
# CELL(abcABC):  459.05226   459.05226   459.05226    90.00000    90.00000    90.00000  Step:          30  Bead:       0 x_centroid{angstrom}  cell{atomic_unit}
       C -3.37888e-01 -1.50149e-01  3.81999e-02
       O  8.45556e-01  2.94507e-01 -1.47546e-01
       H -9.28391e-02  8.43173e-01 -5.76337e-01
       H -4.71697e-01 -1.06346e+00  6.43674e-01
       L  6.72556e+01 -2.42369e+00 -2.51156e+00
       L  1.83093e+00  1.68497e+01  3.20122e+00
6
# CELL(abcABC):  459.05226   459.05226   459.05226    90.00000    90.00000    90.00000  Step:          31  Bead:       0 x_centroid{angstrom}  cell{atomic_unit}
       C -3.34166e-01 -1.50802e-01  3.53882e-02
       O  8.42882e-01  2.94509e-01 -1.45031e-01
       H -9.63212e-02  8.53627e-01 -5.74441e-01
       H -4.70143e-01 -1.06637e+00  6.35090e-01
       L  6.71674e+01 -2.25426e+00 -1.95813e+00
       L  1.96995e+00  1.70600e+01  3.15175e+00
6
# CELL(abcABC):  459.05226   459.05226   459.05226    90.00000    90.00000    90.00000  Step:          32  Bead:       0 x_centroid{angstrom}  cell{atomic_unit}
       C -3.30718e-01 -1.51274e-01  3.25424e-02
       O  8.40298e-01  2.94493e-01 -1.42444e-01
       H -9.86170e-02  8.62738e-01 -5.72576e-01
       H -4.67958e-01 -1.06984e+00  6.25827e-01
       L  6.70758e+01 -1.99359e+00 -1.43719e+00
       L  2.11923e+00  1.72259e+01  3.08476e+00
6
# CELL(abcABC):  459.05226   459.05226   459.05226    90.00000    90.00000    90.00000  Step:          33  Bead:       0 x_centroid{angstrom}  cell{atomic_unit}
       C -3.27358e-01 -1.51935e-01  2.97449e-02
       O  8.37863e-01  2.94732e-01 -1.39807e-01
       H -1.02412e-01  8.68661e-01 -5.69342e-01
       H -4.65585e-01 -1.07194e+00  6.13808e-01
       L  6.70211e+01 -1.68528e+00 -8.84653e-01
       L  2.26040e+00  1.73962e+01  3.00384e+00
6
# CELL(abcABC):  459.05226   459.05226   459.05226    90.00000    90.00000    90.00000  Step:          34  Bead:       0 x_centroid{angstrom}  cell{atomic_unit}
       C -3.24220e-01 -1.52506e-01  2.72723e-02
       O  8.35617e-01  2.95024e-01 -1.37290e-01
       H -1.07527e-01  8.72227e-01 -5.65943e-01
       H -4.62223e-01 -1.07359e+00  5.99696e-01
       L  6.69132e+01 -1.39068e+00 -3.46794e-01
       L  2.38235e+00  1.75793e+01  2.88910e+00
6
# CELL(abcABC):  459.05226   459.05226   459.05226    90.00000    90.00000    90.00000  Step:          35  Bead:       0 x_centroid{angstrom}  cell{atomic_unit}
       C -3.21482e-01 -1.52949e-01  2.43781e-02
       O  8.33779e-01  2.95363e-01 -1.34439e-01
       H -1.16002e-01  8.73617e-01 -5.61847e-01
       H -4.57207e-01 -1.07532e+00  5.84634e-01
       L  6.68102e+01 -1.08125e+00  1.84824e-01
       L  2.48402e+00  1.77099e+01  2.72093e+00
6
# CELL(abcABC):  459.05226   459.05226   459.05226    90.00000    90.00000    90.00000  Step:          36  Bead:       0 x_centroid{angstrom}  cell{atomic_unit}
       C -3.18961e-01 -1.53061e-01  2.15174e-02
       O  8.32104e-01  2.95658e-01 -1.31697e-01
       H -1.24915e-01  8.72228e-01 -5.56219e-01
       H -4.51705e-01 -1.07753e+00  5.69366e-01
       L  6.67000e+01 -7.61057e-01  6.93599e-01
       L  2.53843e+00  1.78256e+01  2.57229e+00
6
# CELL(abcABC):  459.05226   459.05226   459.05226    90.00000    90.00000    90.00000  Step:          37  Bead:       0 x_centroid{angstrom}  cell{atomic_unit}
       C -3.16459e-01 -1.53052e-01  1.86199e-02
       O  8.30297e-01  2.95908e-01 -1.28868e-01
       H -1.31372e-01  8.71150e-01 -5.50749e-01
       H -4.46405e-01 -1.08075e+00  5.53317e-01
       L  6.66374e+01 -4.14017e-01  1.20538e+00
       L  2.65579e+00  1.78948e+01  2.41905e+00
6
# CELL(abcABC):  459.05226   459.05226   459.05226    90.00000    90.00000    90.00000  Step:          38  Bead:       0 x_centroid{angstrom}  cell{atomic_unit}
       C -3.14092e-01 -1.52825e-01  1.55392e-02
       O  8.28288e-01  2.96204e-01 -1.26035e-01
       H -1.34370e-01  8.69311e-01 -5.46269e-01
       H -4.39767e-01 -1.08657e+00  5.40407e-01
       L  6.66153e+01 -6.95588e-02  1.69735e+00
       L  2.74620e+00  1.80153e+01  2.24128e+00
6
# CELL(abcABC):  459.05226   459.05226   459.05226    90.00000    90.00000    90.00000  Step:          39  Bead:       0 x_centroid{angstrom}  cell{atomic_unit}
       C -3.11963e-01 -1.52298e-01  1.21359e-02
       O  8.26241e-01  2.96411e-01 -1.22990e-01
       H -1.35013e-01  8.68018e-01 -5.42259e-01
       H -4.32068e-01 -1.09511e+00  5.28502e-01
       L  6.66785e+01  2.92975e-01  2.13230e+00
       L  2.80297e+00  1.81692e+01  2.03330e+00
6
# CELL(abcABC):  459.05226   459.05226   459.05226    90.00000    90.00000    90.00000  Step:          40  Bead:       0 x_centroid{angstrom}  cell{atomic_unit}
       C -3.10084e-01 -1.51441e-01  8.64567e-03
       O  8.24495e-01  2.96487e-01 -1.19963e-01
       H -1.36367e-01  8.66204e-01 -5.38811e-01
       H -4.25393e-01 -1.10499e+00  5.18433e-01
       L  6.66958e+01  6.29856e-01  2.57519e+00
       L  2.79610e+00  1.83320e+01  1.88469e+00
6
# CELL(abcABC):  459.05226   459.05226   459.05226    90.00000    90.00000    90.00000  Step:          41  Bead:       0 x_centroid{angstrom}  cell{atomic_unit}
       C -3.08498e-01 -1.50476e-01  5.31521e-03
       O  8.23028e-01  2.96487e-01 -1.17041e-01
       H -1.39887e-01  8.65702e-01 -5.35137e-01
       H -4.17472e-01 -1.11628e+00  5.07958e-01
       L  6.67385e+01  9.76571e-01  2.96675e+00
       L  2.73408e+00  1.85067e+01  1.69056e+00
6
# CELL(abcABC):  459.05226   459.05226   459.05226    90.00000    90.00000    90.00000  Step:          42  Bead:       0 x_centroid{angstrom}  cell{atomic_unit}
       C -3.07317e-01 -1.49419e-01  1.94669e-03
       O  8.22009e-01  2.96457e-01 -1.14054e-01
       H -1.45268e-01  8.65691e-01 -5.32805e-01
       H -4.09976e-01 -1.12863e+00  4.98274e-01
       L  6.67524e+01  1.30090e+00  3.31980e+00
       L  2.68968e+00  1.86556e+01  1.47929e+00
6
# CELL(abcABC):  459.05226   459.05226   459.05226    90.00000    90.00000    90.00000  Step:          43  Bead:       0 x_centroid{angstrom}  cell{atomic_unit}
       C -3.06445e-01 -1.48712e-01 -1.31050e-03
       O  8.21218e-01  2.96566e-01 -1.11122e-01
       H -1.51532e-01  8.67543e-01 -5.31043e-01
       H -4.01545e-01 -1.14088e+00  4.88719e-01
       L  6.68101e+01  1.59748e+00  3.63096e+00
       L  2.64054e+00  1.88053e+01  1.27214e+00
6
# CELL(abcABC):  459.05226   459.05226   459.05226    90.00000    90.00000    90.00000  Step:          44  Bead:       0 x_centroid{angstrom}  cell{atomic_unit}
       C -3.05658e-01 -1.48407e-01 -4.33046e-03
       O  8.20546e-01  2.96796e-01 -1.08206e-01
       H -1.57902e-01  8.71089e-01 -5.30525e-01
       H -3.93895e-01 -1.15194e+00  4.77890e-01
       L  6.68938e+01  1.89147e+00  3.94870e+00
       L  2.55824e+00  1.89078e+01  9.80116e-01
6
# CELL(abcABC):  459.05226   459.05226   459.05226    90.00000    90.00000    90.00000  Step:          45  Bead:       0 x_centroid{angstrom}  cell{atomic_unit}
       C -3.04770e-01 -1.48265e-01 -7.60604e-03
       O  8.19869e-01  2.97151e-01 -1.05132e-01
       H -1.64706e-01  8.73954e-01 -5.30746e-01
       H -3.86963e-01 -1.16236e+00  4.68353e-01
       L  6.70156e+01  2.20179e+00  4.23524e+00
       L  2.49136e+00  1.90350e+01  6.84262e-01
6
# CELL(abcABC):  459.05226   459.05226   459.05226    90.00000    90.00000    90.00000  Step:          46  Bead:       0 x_centroid{angstrom}  cell{atomic_unit}
       C -3.04127e-01 -1.48372e-01 -1.05866e-02
       O  8.19318e-01  2.97629e-01 -1.02142e-01
       H -1.69920e-01  8.76900e-01 -5.31693e-01
       H -3.80700e-01 -1.17183e+00  4.57394e-01
       L  6.72258e+01  2.49083e+00  4.48767e+00
       L  2.35084e+00  1.91378e+01  3.51770e-01
6
# CELL(abcABC):  459.05226   459.05226   459.05226    90.00000    90.00000    90.00000  Step:          47  Bead:       0 x_centroid{angstrom}  cell{atomic_unit}
       C -3.03588e-01 -1.48519e-01 -1.34151e-02
       O  8.18952e-01  2.98076e-01 -9.91770e-02
       H -1.75952e-01  8.80096e-01 -5.32605e-01
       H -3.75293e-01 -1.18057e+00  4.45030e-01
       L  6.74733e+01  2.75872e+00  4.67033e+00
       L  2.15891e+00  1.92428e+01  3.17385e-02
6
# CELL(abcABC):  459.05226   459.05226   459.05226    90.00000    90.00000    90.00000  Step:          48  Bead:       0 x_centroid{angstrom}  cell{atomic_unit}
       C -3.03090e-01 -1.48911e-01 -1.63133e-02
       O  8.18493e-01  2.98583e-01 -9.61128e-02
       H -1.80390e-01  8.84096e-01 -5.33308e-01
       H -3.69561e-01 -1.18817e+00  4.31719e-01
       L  6.77577e+01  3.05880e+00  4.79147e+00
       L  1.97557e+00  1.93349e+01 -2.56798e-01
6
# CELL(abcABC):  459.05226   459.05226   459.05226    90.00000    90.00000    90.00000  Step:          49  Bead:       0 x_centroid{angstrom}  cell{atomic_unit}
       C -3.02461e-01 -1.49573e-01 -1.90252e-02
       O  8.17870e-01  2.99254e-01 -9.30180e-02
       H -1.84568e-01  8.87087e-01 -5.34820e-01
       H -3.63102e-01 -1.19407e+00  4.16519e-01
       L  6.80974e+01  3.28249e+00  4.86217e+00
       L  1.83246e+00  1.93823e+01 -5.07596e-01
6
# CELL(abcABC):  459.05226   459.05226   459.05226    90.00000    90.00000    90.00000  Step:          50  Bead:       0 x_centroid{angstrom}  cell{atomic_unit}
       C -3.01817e-01 -1.50129e-01 -2.16773e-02
       O  8.17196e-01  2.99874e-01 -8.98407e-02
       H -1.87751e-01  8.88038e-01 -5.36314e-01
       H -3.56982e-01 -1.19839e+00  3.99280e-01
       L  6.84278e+01  3.48771e+00  4.91020e+00
       L  1.63803e+00  1.94393e+01 -7.35394e-01
6
# CELL(abcABC):  459.05226   459.05226   459.05226    90.00000    90.00000    90.00000  Step:          51  Bead:       0 x_centroid{angstrom}  cell{atomic_unit}
       C -3.01191e-01 -1.51137e-01 -2.43673e-02
       O  8.16446e-01  3.00737e-01 -8.65954e-02
       H -1.90068e-01  8.89500e-01 -5.37387e-01
       H -3.50278e-01 -1.20165e+00  3.81018e-01
       L  6.88359e+01  3.69982e+00  4.90265e+00
       L  1.34911e+00  1.94598e+01 -9.56545e-01
6
# CELL(abcABC):  459.05226   459.05226   459.05226    90.00000    90.00000    90.00000  Step:          52  Bead:       0 x_centroid{angstrom}  cell{atomic_unit}
       C -3.00477e-01 -1.52322e-01 -2.68431e-02
       O  8.15685e-01  3.01763e-01 -8.33966e-02
       H -1.92134e-01  8.90186e-01 -5.39357e-01
       H -3.44731e-01 -1.20460e+00  3.61797e-01
       L  6.93005e+01  3.85691e+00  4.90144e+00
       L  1.05583e+00  1.94924e+01 -1.10940e+00
6
# CELL(abcABC):  459.05226   459.05226   459.05226    90.00000    90.00000    90.00000  Step:          53  Bead:       0 x_centroid{angstrom}  cell{atomic_unit}
       C -2.99569e-01 -1.53598e-01 -2.93948e-02
       O  8.14727e-01  3.02837e-01 -7.99968e-02
       H -1.93062e-01  8.91194e-01 -5.41916e-01
       H -3.39531e-01 -1.20759e+00  3.40873e-01
       L  6.98191e+01  3.98738e+00  4.86645e+00
       L  7.63554e-01  1.96022e+01 -1.21637e+00
6
# CELL(abcABC):  459.05226   459.05226   459.05226    90.00000    90.00000    90.00000  Step:          54  Bead:       0 x_centroid{angstrom}  cell{atomic_unit}
       C -2.98824e-01 -1.55294e-01 -3.18120e-02
       O  8.13898e-01  3.04259e-01 -7.66273e-02
       H -1.94581e-01  8.92063e-01 -5.44627e-01
       H -3.33894e-01 -1.21099e+00  3.18968e-01
       L  7.04028e+01  4.13078e+00  4.80161e+00
       L  4.81240e-01  1.97778e+01 -1.27128e+00
6
# CELL(abcABC):  459.05226   459.05226   459.05226    90.00000    90.00000    90.00000  Step:          55  Bead:       0 x_centroid{angstrom}  cell{atomic_unit}
       C -2.97863e-01 -1.57373e-01 -3.41279e-02
       O  8.12909e-01  3.05999e-01 -7.33500e-02
       H -1.96798e-01  8.92438e-01 -5.46960e-01
       H -3.27632e-01 -1.21439e+00  2.96950e-01
       L  7.10441e+01  4.30374e+00  4.69905e+00
       L  1.95184e-01  1.99350e+01 -1.30472e+00
6
# CELL(abcABC):  459.05226   459.05226   459.05226    90.00000    90.00000    90.00000  Step:          56  Bead:       0 x_centroid{angstrom}  cell{atomic_unit}
       C -2.96722e-01 -1.59315e-01 -3.64802e-02
       O  8.11822e-01  3.07628e-01 -7.00351e-02
       H -1.99903e-01  8.93966e-01 -5.49913e-01
       H -3.21137e-01 -1.21882e+00  2.75406e-01
       L  7.18025e+01  4.44471e+00  4.54693e+00
       L -5.82398e-02  2.01260e+01 -1.32066e+00
6
# CELL(abcABC):  459.05226   459.05226   459.05226    90.00000    90.00000    90.00000  Step:          57  Bead:       0 x_centroid{angstrom}  cell{atomic_unit}
       C -2.95660e-01 -1.61114e-01 -3.87427e-02
       O  8.10915e-01  3.09266e-01 -6.68166e-02
       H -2.04231e-01  8.95326e-01 -5.52982e-01
       H -3.15393e-01 -1.22493e+00  2.54493e-01
       L  7.26131e+01  4.58367e+00  4.29345e+00
       L -2.98853e-01  2.03252e+01 -1.33813e+00
6
# CELL(abcABC):  459.05226   459.05226   459.05226    90.00000    90.00000    90.00000  Step:          58  Bead:       0 x_centroid{angstrom}  cell{atomic_unit}
       C -2.94516e-01 -1.63121e-01 -4.15532e-02
       O  8.10155e-01  3.11180e-01 -6.31713e-02
       H -2.10870e-01  8.96581e-01 -5.56097e-01
       H -3.10695e-01 -1.23283e+00  2.33386e-01
       L  7.35204e+01  4.71003e+00  4.02697e+00
       L -4.88785e-01  2.05297e+01 -1.34815e+00
6
# CELL(abcABC):  459.05226   459.05226   459.05226    90.00000    90.00000    90.00000  Step:          59  Bead:       0 x_centroid{angstrom}  cell{atomic_unit}
       C -2.93197e-01 -1.65085e-01 -4.42554e-02
       O  8.09432e-01  3.13147e-01 -5.95730e-02
       H -2.19504e-01  8.97844e-01 -5.59457e-01
       H -3.06696e-01 -1.24209e+00  2.11934e-01
       L  7.44159e+01  4.80555e+00  3.78431e+00
       L -6.67636e-01  2.07434e+01 -1.30075e+00
6
# CELL(abcABC):  459.05226   459.05226   459.05226    90.00000    90.00000    90.00000  Step:          60  Bead:       0 x_centroid{angstrom}  cell{atomic_unit}
       C -2.91665e-01 -1.66975e-01 -4.70731e-02
       O  8.08728e-01  3.15179e-01 -5.60991e-02
       H -2.29434e-01  8.99795e-01 -5.62252e-01
       H -3.04273e-01 -1.25390e+00  1.93248e-01
       L  7.53554e+01  4.82542e+00  3.53941e+00
       L -8.27018e-01  2.09583e+01 -1.21050e+00
6
# CELL(abcABC):  459.05226   459.05226   459.05226    90.00000    90.00000    90.00000  Step:          61  Bead:       0 x_centroid{angstrom}  cell{atomic_unit}
       C -2.90394e-01 -1.68595e-01 -4.99016e-02
       O  8.08274e-01  3.17145e-01 -5.26748e-02
       H -2.39233e-01  9.02140e-01 -5.66233e-01
       H -3.02830e-01 -1.26820e+00  1.76635e-01
       L  7.63497e+01  4.72466e+00  3.25920e+00
       L -1.04928e+00  2.11845e+01 -1.03342e+00
6
# CELL(abcABC):  459.05226   459.05226   459.05226    90.00000    90.00000    90.00000  Step:          62  Bead:       0 x_centroid{angstrom}  cell{atomic_unit}
       C -2.89107e-01 -1.69904e-01 -5.30066e-02
       O  8.07874e-01  3.19019e-01 -4.91373e-02
       H -2.49964e-01  9.04219e-01 -5.69419e-01
       H -3.01542e-01 -1.28449e+00  1.60735e-01
       L  7.74581e+01  4.60877e+00  2.94069e+00
       L -1.31274e+00  2.14140e+01 -8.38779e-01
6
# CELL(abcABC):  459.05226   459.05226   459.05226    90.00000    90.00000    90.00000  Step:          63  Bead:       0 x_centroid{angstrom}  cell{atomic_unit}
       C -2.87662e-01 -1.70995e-01 -5.62828e-02
       O  8.07478e-01  3.20777e-01 -4.53846e-02
       H -2.62019e-01  9.05685e-01 -5.72249e-01
       H -3.00916e-01 -1.30095e+00  1.43140e-01
       L  7.85861e+01  4.48463e+00  2.54601e+00
       L -1.53157e+00  2.16893e+01 -6.32242e-01
6
# CELL(abcABC):  459.05226   459.05226   459.05226    90.00000    90.00000    90.00000  Step:          64  Bead:       0 x_centroid{angstrom}  cell{atomic_unit}
       C -2.85680e-01 -1.71634e-01 -5.91569e-02
       O  8.06667e-01  3.22237e-01 -4.18444e-02
       H -2.74130e-01  9.06232e-01 -5.76011e-01
       H -3.00128e-01 -1.31714e+00  1.25034e-01
       L  7.98063e+01  4.30855e+00  2.16520e+00
       L -1.68790e+00  2.20274e+01 -3.96522e-01
6
# CELL(abcABC):  459.05226   459.05226   459.05226    90.00000    90.00000    90.00000  Step:          65  Bead:       0 x_centroid{angstrom}  cell{atomic_unit}
       C -2.83442e-01 -1.72137e-01 -6.18800e-02
       O  8.05599e-01  3.23522e-01 -3.84629e-02
       H -2.86279e-01  9.06995e-01 -5.78485e-01
       H -2.98353e-01 -1.33243e+00  1.06432e-01
       L  8.10824e+01  4.10121e+00  1.68909e+00
       L -1.78356e+00  2.24370e+01 -1.99537e-01
6
# CELL(abcABC):  459.05226   459.05226   459.05226    90.00000    90.00000    90.00000  Step:          66  Bead:       0 x_centroid{angstrom}  cell{atomic_unit}
       C -2.81037e-01 -1.72162e-01 -6.47209e-02