6
# CELL(abcABC):  459.05226   459.05226   459.05226    90.00000    90.00000    90.00000  Step:           0  Bead:       0 x_centroid{angstrom}  cell{atomic_unit}
       C -3.39887e-01 -1.13437e-01  8.06659e-02
       O  8.43483e-01  2.62672e-01 -1.81512e-01
       H -7.35799e-02  8.16467e-01 -6.61432e-01
       H -4.30016e-01 -9.65701e-01  7.62278e-01
       L  6.13458e+01  0.00000e+00  0.00000e+00
       L  0.00000e+00  8.59064e+00  0.00000e+00
6
# CELL(abcABC):  459.05226   459.05226   459.05226    90.00000    90.00000    90.00000  Step:           1  Bead:       0 x_centroid{angstrom}  cell{atomic_unit}
       C -3.33079e-01 -1.11203e-01  8.03866e-02
       O  8.38777e-01  2.60901e-01 -1.81074e-01
       H -7.53063e-02  8.26352e-01 -6.66925e-01
       H -4.34373e-01 -9.74309e-01  7.63885e-01
       L  6.06736e+01  8.18233e-03  4.68804e-01
       L  4.32007e-02  8.94654e+00 -1.37794e-02
6
# CELL(abcABC):  459.05226   459.05226   459.05226    90.00000    90.00000    90.00000  Step:           2  Bead:       0 x_centroid{angstrom}  cell{atomic_unit}
       C -3.26656e-01 -1.09033e-01  8.00029e-02
       O  8.34648e-01  2.59242e-01 -1.80582e-01
       H -8.09804e-02  8.32691e-01 -6.70687e-01
       H -4.39362e-01 -9.80379e-01  7.64179e-01
       L  6.00432e+01  2.64534e-02  9.35698e-01
       L  5.45701e-02  9.31404e+00 -4.46593e-02
6
# CELL(abcABC):  459.05226   459.05226   459.05226    90.00000    90.00000    90.00000  Step:           3  Bead:       0 x_centroid{angstrom}  cell{atomic_unit}
       C -3.20724e-01 -1.06795e-01  7.98204e-02
       O  8.31405e-01  2.57720e-01 -1.80094e-01
       H -9.36884e-02  8.33170e-01 -6.73383e-01
       H -4.45509e-01 -9.83550e-01  7.61095e-01
       L  5.93990e+01  3.39414e-02  1.38063e+00
       L  7.33751e-02  9.64887e+00 -1.00062e-01
6
# CELL(abcABC):  459.05226   459.05226   459.05226    90.00000    90.00000    90.00000  Step:           4  Bead:       0 x_centroid{angstrom}  cell{atomic_unit}
       C -3.15148e-01 -1.04450e-01  7.99851e-02
       O  8.28715e-01  2.56286e-01 -1.79747e-01
       H -1.10684e-01  8.28571e-01 -6.73808e-01
       H -4.51881e-01 -9.84300e-01  7.53836e-01
       L  5.87233e+01  2.85329e-02  1.76884e+00
       L  6.52129e-02  9.94881e+00 -1.14237e-01
6
# CELL(abcABC):  459.05226   459.05226   459.05226    90.00000    90.00000    90.00000  Step:           5  Bead:       0 x_centroid{angstrom}  cell{atomic_unit}
       C -3.10093e-01 -1.02214e-01  8.03436e-02
       O  8.26208e-01  2.55106e-01 -1.79540e-01
       H -1.25827e-01  8.21157e-01 -6.72198e-01
       H -4.56857e-01 -9.84931e-01  7.44477e-01
       L  5.81130e+01  3.85682e-02  2.12335e+00
       L  6.70838e-02  1.02112e+01 -1.06370e-01
6
# CELL(abcABC):  459.05226   459.05226   459.05226    90.00000    90.00000    90.00000  Step:           6  Bead:       0 x_centroid{angstrom}  cell{atomic_unit}
       C -3.05047e-01 -1.00022e-01  8.08073e-02
       O  8.23221e-01  2.54077e-01 -1.79485e-01
       H -1.34641e-01  8.11590e-01 -6.69822e-01
       H -4.60407e-01 -9.85285e-01  7.35539e-01
       L  5.74718e+01  3.49473e-02  2.47244e+00
       L  7.10425e-02  1.04347e+01 -1.61756e-01
6
# CELL(abcABC):  459.05226   459.05226   459.05226    90.00000    90.00000    90.00000  Step:           7  Bead:       0 x_centroid{angstrom}  cell{atomic_unit}
       C -3.00213e-01 -9.78807e-02  8.12910e-02
       O  8.19606e-01  2.53145e-01 -1.79524e-01
       H -1.34108e-01  8.02698e-01 -6.66767e-01
       H -4.60882e-01 -9.87249e-01  7.27201e-01
       L  5.69291e+01  1.00288e-01  2.78894e+00
       L  9.81345e-02  1.06419e+01 -2.27713e-01
6
# CELL(abcABC):  459.05226   459.05226   459.05226    90.00000    90.00000    90.00000  Step:           8  Bead:       0 x_centroid{angstrom}  cell{atomic_unit}
       C -2.95729e-01 -9.55233e-02  8.18318e-02
       O  8.15756e-01  2.52140e-01 -1.79567e-01
       H -1.27080e-01  7.94453e-01 -6.64530e-01
       H -4.59974e-01 -9.91292e-01  7.19037e-01
       L  5.64269e+01  1.86192e-01  3.16167e+00
       L  1.12341e-01  1.08277e+01 -2.90860e-01
6
# CELL(abcABC):  459.05226   459.05226   459.05226    90.00000    90.00000    90.00000  Step:           9  Bead:       0 x_centroid{angstrom}  cell{atomic_unit}
       C -2.91793e-01 -9.35511e-02  8.24181e-02
       O  8.12151e-01  2.51394e-01 -1.79603e-01
       H -1.18507e-01  7.86768e-01 -6.62736e-01
       H -4.57960e-01 -9.95433e-01  7.10714e-01
       L  5.59543e+01  2.92356e-01  3.43376e+00
       L  1.04853e-01  1.10254e+01 -3.36367e-01
6
# CELL(abcABC):  459.05226   459.05226   459.05226    90.00000    90.00000    90.00000  Step:          10  Bead:       0 x_centroid{angstrom}  cell{atomic_unit}
       C -2.89043e-01 -9.19605e-02  8.35413e-02
       O  8.09721e-01  2.50897e-01 -1.79872e-01
       H -1.14321e-01  7.79089e-01 -6.62950e-01
       H -4.56054e-01 -9.98977e-01  7.01678e-01
       L  5.54590e+01  3.83545e-01  3.70550e+00
       L  7.45111e-02  1.12056e+01 -3.61618e-01
6
# CELL(abcABC):  459.05226   459.05226   459.05226    90.00000    90.00000    90.00000  Step:          11  Bead:       0 x_centroid{angstrom}  cell{atomic_unit}
       C -2.87564e-01 -9.04243e-02  8.49776e-02
       O  8.08716e-01  2.50248e-01 -1.80216e-01
       H -1.17242e-01  7.73106e-01 -6.65039e-01
       H -4.54511e-01 -1.00113e+00  6.91957e-01
       L  5.49303e+01  4.99583e-01  3.98663e+00
       L  4.63086e-02  1.13451e+01 -3.73450e-01
6
# CELL(abcABC):  459.05226   459.05226   459.05226    90.00000    90.00000    90.00000  Step:          12  Bead:       0 x_centroid{angstrom}  cell{atomic_unit}
       C -2.87319e-01 -8.92657e-02  8.64184e-02
       O  8.08951e-01  2.49742e-01 -1.80622e-01
       H -1.24820e-01  7.69948e-01 -6.67950e-01
       H -4.53290e-01 -1.00392e+00  6.84016e-01
       L  5.43880e+01  6.26651e-01  4.23480e+00
       L  7.00228e-02  1.15279e+01 -3.81574e-01
6
# CELL(abcABC):  459.05226   459.05226   459.05226    90.00000    90.00000    90.00000  Step:          13  Bead:       0 x_centroid{angstrom}  cell{atomic_unit}
       C -2.88260e-01 -8.82847e-02  8.77593e-02
       O  8.10086e-01  2.49211e-01 -1.80926e-01
       H -1.34443e-01  7.70703e-01 -6.72526e-01
       H -4.50200e-01 -1.00816e+00  6.77347e-01
       L  5.38733e+01  8.06515e-01  4.42129e+00
       L  8.99873e-02  1.17525e+01 -4.02848e-01
6
# CELL(abcABC):  459.05226   459.05226   459.05226    90.00000    90.00000    90.00000  Step:          14  Bead:       0 x_centroid{angstrom}  cell{atomic_unit}
       C -2.89928e-01 -8.71130e-02  8.91110e-02
       O  8.11387e-01  2.48466e-01 -1.81282e-01
       H -1.40201e-01  7.73689e-01 -6.78570e-01
       H -4.44962e-01 -1.01351e+00  6.72896e-01
       L  5.34344e+01  9.78114e-01  4.55658e+00
       L  6.20828e-02  1.20262e+01 -4.60461e-01
6
# CELL(abcABC):  459.05226   459.05226   459.05226    90.00000    90.00000    90.00000  Step:          15  Bead:       0 x_centroid{angstrom}  cell{atomic_unit}
       C -2.91943e-01 -8.58992e-02  9.04568e-02
       O  8.12476e-01  2.47666e-01 -1.81658e-01
       H -1.38751e-01  7.78962e-01 -6.86337e-01
       H -4.39463e-01 -1.02082e+00  6.70559e-01
       L  5.30553e+01  1.15356e+00  4.66983e+00
       L  2.50549e-02  1.23250e+01 -5.11807e-01
6
# CELL(abcABC):  459.05226   459.05226   459.05226    90.00000    90.00000    90.00000  Step:          16  Bead:       0 x_centroid{angstrom}  cell{atomic_unit}
       C -2.94667e-01 -8.47763e-02  9.18355e-02
       O  8.13571e-01  2.46832e-01 -1.82128e-01
       H -1.30904e-01  7.86979e-01 -6.95430e-01
       H -4.32065e-01 -1.02924e+00  6.70668e-01
       L  5.27825e+01  1.37230e+00  4.76305e+00
       L -2.44998e-02  1.26166e+01 -5.74488e-01
6
# CELL(abcABC):  459.05226   459.05226   459.05226    90.00000    90.00000    90.00000  Step:          17  Bead:       0 x_centroid{angstrom}  cell{atomic_unit}
       C -2.98133e-01 -8.35326e-02  9.34258e-02
       O  8.15030e-01  2.45916e-01 -1.82768e-01
       H -1.20635e-01  7.94571e-01 -7.05035e-01
       H -4.24041e-01 -1.03739e+00  6.71511e-01
       L  5.26257e+01  1.57209e+00  4.77908e+00
       L -1.35077e-01  1.29049e+01 -6.47365e-01
6
# CELL(abcABC):  459.05226   459.05226   459.05226    90.00000    90.00000    90.00000  Step:          18  Bead:       0 x_centroid{angstrom}  cell{atomic_unit}
       C -3.02359e-01 -8.28343e-02  9.53439e-02
       O  8.17283e-01  2.45546e-01 -1.83688e-01
       H -1.13328e-01  7.98574e-01 -7.12569e-01
       H -4.16623e-01 -1.04406e+00  6.70825e-01
       L  5.25180e+01  1.72453e+00  4.79923e+00
       L -2.68963e-01  1.31538e+01 -7.22304e-01
6
# CELL(abcABC):  459.05226   459.05226   459.05226    90.00000    90.00000    90.00000  Step:          19  Bead:       0 x_centroid{angstrom}  cell{atomic_unit}
       C -3.07445e-01 -8.26871e-02  9.78211e-02
       O  8.20444e-01  2.45651e-01 -1.84865e-01
       H -1.09799e-01  7.99011e-01 -7.20181e-01
       H -4.09614e-01 -1.04812e+00  6.67639e-01
       L  5.24912e+01  1.86093e+00  4.78681e+00
       L -4.11699e-01  1.34062e+01 -7.88845e-01
6
# CELL(abcABC):  459.05226   459.05226   459.05226    90.00000    90.00000    90.00000  Step:          20  Bead:       0 x_centroid{angstrom}  cell{atomic_unit}
       C -3.13491e-01 -8.25185e-02  1.00592e-01
       O  8.24542e-01  2.45792e-01 -1.86235e-01
       H -1.09408e-01  7.95787e-01 -7.25402e-01
       H -4.02962e-01 -1.04927e+00  6.61646e-01
       L  5.24582e+01  1.93677e+00  4.74348e+00
       L -5.03102e-01  1.35438e+01 -8.26187e-01
6
# CELL(abcABC):  459.05226   459.05226   459.05226    90.00000    90.00000    90.00000  Step:          21  Bead:       0 x_centroid{angstrom}  cell{atomic_unit}
       C -3.19927e-01 -8.22962e-02  1.03243e-01
       O  8.28807e-01  2.46042e-01 -1.87576e-01
       H -1.07277e-01  7.87750e-01 -7.27762e-01
       H -3.96029e-01 -1.04792e+00  6.53704e-01
       L  5.24911e+01  2.00917e+00  4.74094e+00
       L -6.58883e-01  1.36037e+01 -8.32054e-01
6
# CELL(abcABC):  459.05226   459.05226   459.05226    90.00000    90.00000    90.00000  Step:          22  Bead:       0 x_centroid{angstrom}  cell{atomic_unit}
       C -3.26372e-01 -8.22808e-02  1.05843e-01
       O  8.32787e-01  2.46596e-01 -1.89018e-01
       H -1.00074e-01  7.77119e-01 -7.29030e-01
       H -3.89596e-01 -1.04631e+00  6.46910e-01
       L  5.26270e+01  2.07723e+00  4.67153e+00
       L -8.24274e-01  1.36100e+01 -8.22723e-01
6
# CELL(abcABC):  459.05226   459.05226   459.05226    90.00000    90.00000    90.00000  Step:          23  Bead:       0 x_centroid{angstrom}  cell{atomic_unit}
       C -3.32879e-01 -8.28330e-02  1.08551e-01
       O  8.36291e-01  2.47702e-01 -1.90511e-01
       H -8.63057e-02  7.65009e-01 -7.29497e-01
       H -3.81442e-01 -1.04520e+00  6.38810e-01
       L  5.27716e+01  2.12728e+00  4.58622e+00
       L -9.75996e-01  1.36017e+01 -7.49216e-01
6
# CELL(abcABC):  459.05226   459.05226   459.05226    90.00000    90.00000    90.00000  Step:          24  Bead:       0 x_centroid{angstrom}  cell{atomic_unit}
       C -3.39338e-01 -8.33717e-02  1.11057e-01
       O  8.39395e-01  2.48831e-01 -1.91926e-01
       H -6.72970e-02  7.55056e-01 -7.30810e-01
       H -3.72784e-01 -1.04679e+00  6.32700e-01
       L  5.29292e+01  2.16279e+00  4.47088e+00
       L -1.07920e+00  1.36422e+01 -5.83313e-01
6
# CELL(abcABC):  459.05226   459.05226   459.05226    90.00000    90.00000    90.00000  Step:          25  Bead:       0 x_centroid{angstrom}  cell{atomic_unit}
       C -3.45601e-01 -8.38279e-02  1.13532e-01
       O  8.42362e-01  2.49675e-01 -1.93374e-01
       H -4.70367e-02  7.49088e-01 -7.33125e-01
       H -3.65564e-01 -1.04878e+00  6.28489e-01
       L  5.31043e+01  2.12545e+00  4.29307e+00
       L -1.13283e+00  1.36845e+01 -3.89832e-01
6
# CELL(abcABC):  459.05226   459.05226   459.05226    90.00000    90.00000    90.00000  Step:          26  Bead:       0 x_centroid{angstrom}  cell{atomic_unit}
       C -3.52094e-01 -8.46773e-02  1.15997e-01
       O  8.45748e-01  2.50629e-01 -1.95047e-01
       H -2.99594e-02  7.47078e-01 -7.34340e-01
       H -3.59089e-01 -1.05186e+00  6.26898e-01
       L  5.32434e+01  2.09907e+00  4.05825e+00
       L -1.15600e+00  1.38223e+01 -1.66013e-01
6
# CELL(abcABC):  459.05226   459.05226   459.05226    90.00000    90.00000    90.00000  Step:          27  Bead:       0 x_centroid{angstrom}  cell{atomic_unit}
       C -3.58569e-01 -8.60010e-02  1.18146e-01
       O  8.49522e-01  2.51703e-01 -1.96728e-01
       H -1.80088e-02  7.49369e-01 -7.35417e-01
       H -3.53831e-01 -1.05548e+00  6.29091e-01
       L  5.32978e+01  2.02959e+00  3.75667e+00
       L -1.14391e+00  1.40051e+01  3.83621e-02
6
# CELL(abcABC):  459.05226   459.05226   459.05226    90.00000    90.00000    90.00000  Step:          28  Bead:       0 x_centroid{angstrom}  cell{atomic_unit}
       C -3.65189e-01 -8.75636e-02  1.20235e-01
       O  8.53871e-01  2.52742e-01 -1.98533e-01
       H -1.13108e-02  7.55272e-01 -7.36945e-01
       H -3.50618e-01 -1.05935e+00  6.34447e-01
       L  5.32267e+01  1.94703e+00  3.43099e+00
       L -1.16360e+00  1.42574e+01  2.72032e-01
6
# CELL(abcABC):  459.05226   459.05226   459.05226    90.00000    90.00000    90.00000  Step:          29  Bead:       0 x_centroid{angstrom}  cell{atomic_unit}
       C -3.71788e-01 -8.93827e-02  1.22356e-01
       O  8.58621e-01  2.53596e-01 -2.00526e-01
       H -9.01523e-03  7.65021e-01 -7.37163e-01
       H -3.49569e-01 -1.06109e+00  6.41108e-01
       L  5.30757e+01  1.84934e+00  3.05864e+00
       L -1.20550e+00  1.45725e+01  4.99234e-01
6
# CELL(abcABC):  459.05226   459.05226   459.05226    90.00000    90.00000    90.00000  Step:          30  Bead:       0 x_centroid{angstrom}  cell{atomic_unit}
       C -3.78199e-01 -9.13347e-02  1.24774e-01
       O  8.63391e-01  2.54295e-01 -2.02855e-01
       H -7.37314e-03  7.78189e-01 -7.38087e-01
       H -3.50446e-01 -1.06225e+00  6.50295e-01
       L  5.28695e+01  1.75676e+00  2.66364e+00
       L -1.17715e+00  1.49368e+01  6.89409e-01
6
# CELL(abcABC):  459.05226   459.05226   459.05226    90.00000    90.00000    90.00000  Step:          31  Bead:       0 x_centroid{angstrom}  cell{atomic_unit}
       C -3.84455e-01 -9.32369e-02  1.27062e-01
       O  8.68103e-01  2.54803e-01 -2.05174e-01
       H -4.96502e-03  7.92704e-01 -7.38261e-01
       H -3.52987e-01 -1.06232e+00  6.60179e-01
       L  5.26500e+01  1.62929e+00  2.25416e+00
       L -1.15759e+00  1.53725e+01  8.01729e-01
6
# CELL(abcABC):  459.05226   459.05226   459.05226    90.00000    90.00000    90.00000  Step:          32  Bead:       0 x_centroid{angstrom}  cell{atomic_unit}
       C -3.90212e-01 -9.52346e-02  1.29292e-01
       O  8.72193e-01  2.55253e-01 -2.07516e-01
       H  2.05432e-03  8.07366e-01 -7.38287e-01
       H -3.56217e-01 -1.06053e+00  6.70938e-01
       L  5.24209e+01  1.51153e+00  1.87198e+00
       L -1.14153e+00  1.58516e+01  9.27253e-01
6
# CELL(abcABC):  459.05226   459.05226   459.05226    90.00000    90.00000    90.00000  Step:          33  Bead:       0 x_centroid{angstrom}  cell{atomic_unit}
       C -3.95462e-01 -9.73480e-02  1.31379e-01
       O  8.75515e-01  2.55778e-01 -2.09863e-01
       H  1.52667e-02  8.20335e-01 -7.36014e-01
       H -3.59450e-01 -1.05685e+00  6.81165e-01
       L  5.21493e+01  1.42115e+00  1.52366e+00
       L -1.15991e+00  1.63228e+01  1.07802e+00
6
# CELL(abcABC):  459.05226   459.05226   459.05226    90.00000    90.00000    90.00000  Step:          34  Bead:       0 x_centroid{angstrom}  cell{atomic_unit}
       C -4.00534e-01 -9.97941e-02  1.33473e-01
       O  8.78331e-01  2.56667e-01 -2.12336e-01
       H  3.51275e-02  8.30025e-01 -7.30561e-01
       H -3.63413e-01 -1.05171e+00  6.90069e-01
       L  5.18798e+01  1.36490e+00  1.22465e+00
       L -1.14957e+00  1.67758e+01  1.26124e+00
6
# CELL(abcABC):  459.05226   459.05226   459.05226    90.00000    90.00000    90.00000  Step:          35  Bead:       0 x_centroid{angstrom}  cell{atomic_unit}
       C -4.05403e-01 -1.02573e-01  1.35830e-01
       O  8.80533e-01  2.57952e-01 -2.15012e-01
       H  6.18776e-02  8.35843e-01 -7.23655e-01
       H -3.66944e-01 -1.04501e+00  6.97624e-01
       L  5.15323e+01  1.28496e+00  9.16755e-01
       L -1.11020e+00  1.72010e+01  1.44824e+00
6
# CELL(abcABC):  459.05226   459.05226   459.05226    90.00000    90.00000    90.00000  Step:          36  Bead:       0 x_centroid{angstrom}  cell{atomic_unit}
       C -4.09835e-01 -1.05725e-01  1.38300e-01
       O  8.82242e-01  2.59614e-01 -2.17779e-01
       H  9.25854e-02  8.38816e-01 -7.13270e-01
       H -3.71786e-01 -1.03695e+00  7.01809e-01
       L  5.11373e+01  1.20448e+00  6.04774e-01
       L -1.02599e+00  1.75542e+01  1.62650e+00
6
# CELL(abcABC):  459.05226   459.05226   459.05226    90.00000    90.00000    90.00000  Step:          37  Bead:       0 x_centroid{angstrom}  cell{atomic_unit}
       C -4.14318e-01 -1.08983e-01  1.41010e-01
       O  8.83986e-01  2.61507e-01 -2.20813e-01
       H  1.25689e-01  8.37419e-01 -7.00886e-01
       H -3.78918e-01 -1.02692e+00  7.05426e-01
       L  5.06568e+01  1.13064e+00  1.88567e-01
       L -9.71200e-01  1.78957e+01  1.79242e+00
6
# CELL(abcABC):  459.05226   459.05226   459.05226    90.00000    90.00000    90.00000  Step:          38  Bead:       0 x_centroid{angstrom}  cell{atomic_unit}
       C -4.18925e-01 -1.12651e-01  1.43857e-01
       O  8.85774e-01  2.63773e-01 -2.24123e-01
       H  1.60390e-01  8.34141e-01 -6.87116e-01
       H -3.86848e-01 -1.01605e+00  7.10401e-01
       L  5.00977e+01  1.06613e+00 -2.56157e-01
       L -9.09504e-01  1.82369e+01  1.97955e+00
6
# CELL(abcABC):  459.05226   459.05226   459.05226    90.00000    90.00000    90.00000  Step:          39  Bead:       0 x_centroid{angstrom}  cell{atomic_unit}
       C -4.23936e-01 -1.16307e-01  1.46879e-01
       O  8.87804e-01  2.66111e-01 -2.27584e-01
       H  1.96345e-01  8.30785e-01 -6.74261e-01
       H -3.94989e-01 -1.00637e+00  7.16632e-01
       L  4.94709e+01  1.03467e+00 -7.19342e-01
       L -8.49848e-01  1.85002e+01  2.17346e+00
6
# CELL(abcABC):  459.05226   459.05226   459.05226    90.00000    90.00000    90.00000  Step:          40  Bead:       0 x_centroid{angstrom}  cell{atomic_unit}
       C -4.29895e-01 -1.20441e-01  1.49954e-01
       O  8.90565e-01  2.68771e-01 -2.31048e-01
       H  2.32152e-01  8.31698e-01 -6.64006e-01
       H -4.03270e-01 -1.00040e+00  7.24850e-01
       L  4.87034e+01  9.95299e-01 -1.19158e+00
       L -7.28842e-01  1.88083e+01  2.38347e+00
6
# CELL(abcABC):  459.05226   459.05226   459.05226    90.00000    90.00000    90.00000  Step:          41  Bead:       0 x_centroid{angstrom}  cell{atomic_unit}
       C -4.36577e-01 -1.24686e-01  1.53204e-01
       O  8.93789e-01  2.71286e-01 -2.34605e-01
       H  2.68389e-01  8.39196e-01 -6.56769e-01
       H -4.10607e-01 -9.97386e-01  7.35498e-01
       L  4.77185e+01  9.81548e-01 -1.69849e+00
       L -5.82603e-01  1.91055e+01  2.61086e+00
6
# CELL(abcABC):  459.05226   459.05226   459.05226    90.00000    90.00000    90.00000  Step:          42  Bead:       0 x_centroid{angstrom}  cell{atomic_unit}
       C -4.43800e-01 -1.28625e-01  1.56822e-01
       O  8.97396e-01  2.73502e-01 -2.38354e-01
       H  3.04598e-01  8.52305e-01 -6.53360e-01
       H -4.17458e-01 -9.98892e-01  7.48648e-01
       L  4.66371e+01  9.48575e-01 -2.22731e+00
       L -4.95165e-01  1.94331e+01  2.83449e+00
6
# CELL(abcABC):  459.05226   459.05226   459.05226    90.00000    90.00000    90.00000  Step:          43  Bead:       0 x_centroid{angstrom}  cell{atomic_unit}
       C -4.51572e-01 -1.32516e-01  1.60569e-01
       O  9.01573e-01  2.75364e-01 -2.41945e-01
       H  3.37250e-01  8.73015e-01 -6.55152e-01
       H -4.23232e-01 -1.00296e+00  7.62958e-01
       L  4.54752e+01  8.94740e-01 -2.72895e+00
       L -3.74594e-01  1.97844e+01  3.06314e+00
6
# CELL(abcABC):  459.05226   459.05226   459.05226    90.00000    90.00000    90.00000  Step:          44  Bead:       0 x_centroid{angstrom}  cell{atomic_unit}
       C -4.59268e-01 -1.36108e-01  1.64226e-01
       O  9.05818e-01  2.76797e-01 -2.45251e-01
       H  3.67366e-01  8.98496e-01 -6.62489e-01
       H -4.28376e-01 -1.00855e+00  7.79326e-01
       L  4.41777e+01  8.29303e-01 -3.20110e+00
       L -2.51416e-01  2.01518e+01  3.27217e+00
6
# CELL(abcABC):  459.05226   459.05226   459.05226    90.00000    90.00000    90.00000  Step:          45  Bead:       0 x_centroid{angstrom}  cell{atomic_unit}
       C -4.67280e-01 -1.39953e-01  1.68274e-01
       O  9.10339e-01  2.78355e-01 -2.48697e-01
       H  3.97419e-01  9.26824e-01 -6.72168e-01
       H -4.34060e-01 -1.01593e+00  7.95642e-01
       L  4.27934e+01  7.60641e-01 -3.68647e+00
       L -1.06167e-01  2.05016e+01  3.44339e+00
6
# CELL(abcABC):  459.05226   459.05226   459.05226    90.00000    90.00000    90.00000  Step:          46  Bead:       0 x_centroid{angstrom}  cell{atomic_unit}
       C -4.74852e-01 -1.43758e-01  1.72335e-01
       O  9.14656e-01  2.79745e-01 -2.51809e-01
       H  4.26847e-01  9.57418e-01 -6.86122e-01
       H -4.41116e-01 -1.02338e+00  8.10781e-01
       L  4.13862e+01  6.76651e-01 -4.13167e+00
       L  7.14714e-02  2.08185e+01  3.54899e+00
6
# CELL(abcABC):  459.05226   459.05226   459.05226    90.00000    90.00000    90.00000  Step:          47  Bead:       0 x_centroid{angstrom}  cell{atomic_unit}
       C -4.82538e-01 -1.47558e-01  1.76701e-01
       O  9.18840e-01  2.81240e-01 -2.54802e-01
       H  4.58733e-01  9.85941e-01 -7.01190e-01
       H -4.47183e-01 -1.03041e+00  8.21510e-01
       L  3.99749e+01  5.67049e-01 -4.52685e+00
       L  3.07578e-01  2.10209e+01  3.63198e+00
6
# CELL(abcABC):  459.05226   459.05226   459.05226    90.00000    90.00000    90.00000  Step:          48  Bead:       0 x_centroid{angstrom}  cell{atomic_unit}
       C -4.89904e-01 -1.51504e-01  1.81396e-01
       O  9.22688e-01  2.83071e-01 -2.57751e-01
       H  4.93088e-01  1.00975e+00 -7.16325e-01
       H -4.54194e-01 -1.03623e+00  8.27656e-01
       L  3.85159e+01  4.44254e-01 -4.83809e+00
       L  5.53491e-01  2.10894e+01  3.67912e+00
6
# CELL(abcABC):  459.05226   459.05226   459.05226    90.00000    90.00000    90.00000  Step:          49  Bead:       0 x_centroid{angstrom}  cell{atomic_unit}
       C -4.96998e-01 -1.55365e-01  1.86563e-01
       O  9.26062e-01  2.85221e-01 -2.60701e-01
       H  5.31245e-01  1.02580e+00 -7.31900e-01
       H -4.60660e-01 -1.04030e+00  8.28659e-01
       L  3.70054e+01  3.02134e-01 -5.18021e+00
       L  7.61734e-01  2.10344e+01  3.69329e+00
6
# CELL(abcABC):  459.05226   459.05226   459.05226    90.00000    90.00000    90.00000  Step:          50  Bead:       0 x_centroid{angstrom}  cell{atomic_unit}
       C -5.03413e-01 -1.59427e-01  1.91904e-01
       O  9.28661e-01  2.87818e-01 -2.63423e-01
       H  5.73221e-01  1.03475e+00 -7.47078e-01
       H -4.66789e-01 -1.04184e+00  8.23516e-01
       L  3.55060e+01  1.28335e-01 -5.40863e+00
       L  1.04364e+00  2.08195e+01  3.72046e+00
6
# CELL(abcABC):  459.05226   459.05226   459.05226    90.00000    90.00000    90.00000  Step:          51  Bead:       0 x_centroid{angstrom}  cell{atomic_unit}
       C -5.08857e-01 -1.63459e-01  1.97813e-01
       O  9.30391e-01  2.90748e-01 -2.66333e-01
       H  6.16606e-01  1.03768e+00 -7.62641e-01
       H -4.72107e-01 -1.04296e+00  8.14960e-01
       L  3.40235e+01 -6.64382e-02 -5.61290e+00
       L  1.32193e+00  2.05134e+01  3.74320e+00
6
# CELL(abcABC):  459.05226   459.05226   459.05226    90.00000    90.00000    90.00000  Step:          52  Bead:       0 x_centroid{angstrom}  cell{atomic_unit}
       C -5.13465e-01 -1.67271e-01  2.03509e-01
       O  9.31199e-01  2.93779e-01 -2.68982e-01
       H  6.62565e-01  1.03632e+00 -7.77493e-01
       H -4.75281e-01 -1.04397e+00  8.04091e-01
       L  3.25271e+01 -2.86010e-01 -5.81907e+00
       L  1.54468e+00  2.01468e+01  3.72882e+00
6
# CELL(abcABC):  459.05226   459.05226   459.05226    90.00000    90.00000    90.00000  Step:          53  Bead:       0 x_centroid{angstrom}  cell{atomic_unit}
       C -5.17037e-01 -1.70794e-01  2.09038e-01
       O  9.31122e-01  2.96803e-01 -2.71247e-01
       H  7.07137e-01  1.03310e+00 -7.94524e-01
       H -4.75402e-01 -1.04638e+00  7.91291e-01
       L  3.10657e+01 -5.49545e-01 -5.95268e+00
       L  1.76080e+00  1.96755e+01  3.69537e+00
6
# CELL(abcABC):  459.05226   459.05226   459.05226    90.00000    90.00000    90.00000  Step:          54  Bead:       0 x_centroid{angstrom}  cell{atomic_unit}
       C -5.19971e-01 -1.73939e-01  2.14107e-01
       O  9.30390e-01  2.99721e-01 -2.72989e-01
       H  7.52049e-01  1.03082e+00 -8.14139e-01
       H -4.73083e-01 -1.05255e+00  7.78220e-01
       L  2.96763e+01 -8.02180e-01 -5.99556e+00
       L  1.96382e+00  1.91897e+01  3.61762e+00
6
# CELL(abcABC):  459.05226   459.05226   459.05226    90.00000    90.00000    90.00000  Step:          55  Bead:       0 x_centroid{angstrom}  cell{atomic_unit}
       C -5.22196e-01 -1.76559e-01  2.18454e-01
       O  9.29095e-01  3.02240e-01 -2.74108e-01
       H  7.93780e-01  1.03083e+00 -8.36883e-01
       H -4.67134e-01 -1.06089e+00  7.66964e-01
       L  2.83004e+01 -1.05977e+00 -5.92934e+00
       L  2.20843e+00  1.86656e+01  3.46714e+00
6
# CELL(abcABC):  459.05226   459.05226   459.05226    90.00000    90.00000    90.00000  Step:          56  Bead:       0 x_centroid{angstrom}  cell{atomic_unit}
       C -5.23881e-01 -1.77954e-01  2.22069e-01
       O  9.27353e-01  3.03984e-01 -2.74787e-01
       H  8.32885e-01  1.03265e+00 -8.60680e-01
       H -4.57879e-01 -1.07330e+00  7.58493e-01
       L  2.69411e+01 -1.37528e+00 -5.77444e+00
       L  2.40505e+00  1.81011e+01  3.28040e+00
6
# CELL(abcABC):  459.05226   459.05226   459.05226    90.00000    90.00000    90.00000  Step:          57  Bead:       0 x_centroid{angstrom}  cell{atomic_unit}
       C -5.25241e-01 -1.78090e-01  2.25068e-01
       O  9.25361e-01  3.04956e-01 -2.75081e-01
       H  8.67335e-01  1.03510e+00 -8.84902e-01
       H -4.43858e-01 -1.08909e+00  7.51641e-01
       L  2.56010e+01 -1.65766e+00 -5.57690e+00
       L  2.57426e+00  1.75494e+01  3.09146e+00
6
# CELL(abcABC):  459.05226   459.05226   459.05226    90.00000    90.00000    90.00000  Step:          58  Bead:       0 x_centroid{angstrom}  cell{atomic_unit}
       C -5.26350e-01 -1.77410e-01  2.27411e-01
       O  9.23160e-01  3.05537e-01 -2.75111e-01
       H  8.96795e-01  1.03799e+00 -9.07303e-01
       H -4.24487e-01 -1.10890e+00  7.46545e-01
       L  2.42108e+01 -1.93939e+00 -5.29132e+00
       L  2.71074e+00  1.70841e+01  2.90032e+00
6
# CELL(abcABC):  459.05226   459.05226   459.05226    90.00000    90.00000    90.00000  Step:          59  Bead:       0 x_centroid{angstrom}  cell{atomic_unit}
       C -5.27104e-01 -1.75827e-01  2.29120e-01
       O  9.20890e-01  3.05797e-01 -2.75039e-01
       H  9.19384e-01  1.03871e+00 -9.24240e-01
       H -4.01349e-01 -1.13220e+00  7.41921e-01
       L  2.27634e+01 -2.22932e+00 -4.99644e+00
       L  2.85328e+00  1.66171e+01  2.71895e+00
6
# CELL(abcABC):  459.05226   459.05226   459.05226    90.00000    90.00000    90.00000  Step:          60  Bead:       0 x_centroid{angstrom}  cell{atomic_unit}
       C -5.28106e-01 -1.73746e-01  2.30858e-01
       O  9.18963e-01  3.05850e-01 -2.75201e-01
       H  9.37193e-01  1.03574e+00 -9.37984e-01
       H -3.75874e-01 -1.15447e+00  7.37438e-01
       L  2.12356e+01 -2.53031e+00 -4.66062e+00
       L  2.99656e+00  1.61664e+01  2.52601e+00
6
# CELL(abcABC):  459.05226   459.05226   459.05226    90.00000    90.00000    90.00000  Step:          61  Bead:       0 x_centroid{angstrom}  cell{atomic_unit}
       C -5.29472e-01 -1.71263e-01  2.32612e-01
       O  9.17616e-01  3.05909e-01 -2.75498e-01
       H  9.47899e-01  1.02719e+00 -9.46937e-01
       H -3.48084e-01 -1.17600e+00  7.30152e-01
       L  1.95706e+01 -2.84471e+00 -4.33051e+00
       L  3.11492e+00  1.56805e+01  2.30737e+00
6
# CELL(abcABC):  459.05226   459.05226   459.05226    90.00000    90.00000    90.00000  Step:          62  Bead:       0 x_centroid{angstrom}  cell{atomic_unit}
       C -5.30990e-01 -1.68541e-01  2.34304e-01
       O  9.16646e-01  3.05872e-01 -2.75922e-01
       H  9.53522e-01  1.01370e+00 -9.50812e-01
       H -3.19289e-01 -1.19391e+00  7.20516e-01
       L  1.78266e+01 -3.15200e+00 -3.94488e+00
       L  3.15758e+00  1.51707e+01  2.07366e+00
6
# CELL(abcABC):  459.05226   459.05226   459.05226    90.00000    90.00000    90.00000  Step:          63  Bead:       0 x_centroid{angstrom}  cell{atomic_unit}
       C -5.32234e-01 -1.65874e-01  2.35857e-01
       O  9.15774e-01  3.05749e-01 -2.76287e-01
       H  9.53053e-01  9.96987e-01 -9.52114e-01
       H -2.89199e-01 -1.20659e+00  7.09006e-01
       L  1.60808e+01 -3.40799e+00 -3.50679e+00
       L  3.15179e+00  1.46307e+01  1.79087e+00
6
# CELL(abcABC):  459.05226   459.05226   459.05226    90.00000    90.00000    90.00000  Step:          64  Bead:       0 x_centroid{angstrom}  cell{atomic_unit}
       C -5.32865e-01 -1.63112e-01  2.37273e-01
       O  9.14778e-01  3.05395e-01 -2.76537e-01
       H  9.47476e-01  9.79035e-01 -9.50426e-01
       H -2.59319e-01 -1.21549e+00  6.94338e-01
       L  1.43601e+01 -3.62851e+00 -3.03507e+00
       L  3.08609e+00  1.40483e+01  1.48556e+00
6
# CELL(abcABC):  459.05226   459.05226   459.05226    90.00000    90.00000    90.00000  Step:          65  Bead:       0 x_centroid{angstrom}  cell{atomic_unit}
       C -5.32398e-01 -1.60370e-01  2.38188e-01
       O  9.13226e-01  3.04681e-01 -2.76526e-01
       H  9.39299e-01  9.61181e-01 -9.46378e-01
       H -2.31061e-01 -1.21855e+00  6.79090e-01
       L  1.25818e+01 -3.84302e+00 -2.52822e+00
       L  3.00823e+00  1.34461e+01  1.18431e+00
6
# CELL(abcABC):  459.05226   459.05226   459.05226    90.00000    90.00000    90.00000  Step:          66  Bead:       0 x_centroid{angstrom}  cell{atomic_unit}
       C -5.30712e-01 -1.57994e-01  2.38450e-01