6
# CELL(abcABC):  459.05226   459.05226   459.05226    90.00000    90.00000    90.00000  Step:           0  Bead:       0 x_centroid{angstrom}  cell{atomic_unit}
       C -3.39887e-01 -1.13437e-01  8.06659e-02
       O  8.43483e-01  2.62672e-01 -1.81512e-01
       H -7.35799e-02  8.16467e-01 -6.61432e-01
       H -4.30016e-01 -9.65701e-01  7.62278e-01
       L  6.13458e+01  0.00000e+00  0.00000e+00
       L  0.00000e+00  8.59064e+00  0.00000e+00
6
# CELL(abcABC):  459.05226   459.05226   459.05226    90.00000    90.00000    90.00000  Step:           1  Bead:       0 x_centroid{angstrom}  cell{atomic_unit}
       C -3.41016e-01 -1.11791e-01  8.44050e-02
       O  8.44626e-01  2.61218e-01 -1.85368e-01
       H -7.75485e-02  8.13767e-01 -6.54786e-01
       H -4.30859e-01 -9.59814e-01  7.72513e-01
       L  6.11257e+01 -2.81417e-01 -4.79951e-01
       L  4.44068e-01  9.36161e+00  3.49903e-02
6
# CELL(abcABC):  459.05226   459.05226   459.05226    90.00000    90.00000    90.00000  Step:           2  Bead:       0 x_centroid{angstrom}  cell{atomic_unit}
       C -3.42297e-01 -1.10104e-01  8.79593e-02
       O  8.45717e-01  2.59739e-01 -1.89079e-01
       H -7.85911e-02  8.11147e-01 -6.48293e-01
       H -4.32008e-01 -9.54075e-01  7.82793e-01
       L  6.09386e+01 -5.64023e-01 -9.28904e-01
       L  8.99487e-01  1.01127e+01  1.00655e-01
6
# CELL(abcABC):  459.05226   459.05226   459.05226    90.00000    90.00000    90.00000  Step:           3  Bead:       0 x_centroid{angstrom}  cell{atomic_unit}
       C -3.43461e-01 -1.08660e-01  9.16475e-02
       O  8.46367e-01  2.58453e-01 -1.92908e-01
       H -7.55316e-02  8.08849e-01 -6.41995e-01
       H -4.31660e-01 -9.48820e-01  7.93519e-01
       L  6.07764e+01 -8.16378e-01 -1.35135e+00
       L  1.32417e+00  1.08368e+01  1.57961e-01
6
# CELL(abcABC):  459.05226   459.05226   459.05226    90.00000    90.00000    90.00000  Step:           4  Bead:       0 x_centroid{angstrom}  cell{atomic_unit}
       C -3.44668e-01 -1.07166e-01  9.53347e-02
       O  8.46854e-01  2.57143e-01 -1.96711e-01
       H -6.94559e-02  8.07689e-01 -6.36097e-01
       H -4.31233e-01 -9.44904e-01  8.04264e-01
       L  6.06170e+01 -1.05936e+00 -1.80439e+00
       L  1.74203e+00  1.15018e+01  2.16665e-01
6
# CELL(abcABC):  459.05226   459.05226   459.05226    90.00000    90.00000    90.00000  Step:           5  Bead:       0 x_centroid{angstrom}  cell{atomic_unit}
       C -3.45715e-01 -1.05768e-01  9.91964e-02
       O  8.47206e-01  2.55924e-01 -2.00484e-01
       H -6.28049e-02  8.06542e-01 -6.32012e-01
       H -4.31153e-01 -9.41289e-01  8.14283e-01
       L  6.04673e+01 -1.30360e+00 -2.25412e+00
       L  2.18747e+00  1.21383e+01  2.50918e-01
6
# CELL(abcABC):  459.05226   459.05226   459.05226    90.00000    90.00000    90.00000  Step:           6  Bead:       0 x_centroid{angstrom}  cell{atomic_unit}
       C -3.46789e-01 -1.04371e-01  1.03387e-01
       O  8.47662e-01  2.54622e-01 -2.04321e-01
       H -5.76638e-02  8.05742e-01 -6.28812e-01
       H -4.30877e-01 -9.36648e-01  8.22248e-01
       L  6.03166e+01 -1.56117e+00 -2.64837e+00
       L  2.62100e+00  1.27506e+01  2.91098e-01
6
# CELL(abcABC):  459.05226   459.05226   459.05226    90.00000    90.00000    90.00000  Step:           7  Bead:       0 x_centroid{angstrom}  cell{atomic_unit}
       C -3.47860e-01 -1.03244e-01  1.07662e-01
       O  8.48364e-01  2.53568e-01 -2.08072e-01
       H -5.56487e-02  8.02852e-01 -6.25380e-01
       H -4.31389e-01 -9.30625e-01  8.27584e-01
       L  6.01110e+01 -1.82635e+00 -3.00027e+00
       L  3.03375e+00  1.33171e+01  3.22970e-01
6
# CELL(abcABC):  459.05226   459.05226   459.05226    90.00000    90.00000    90.00000  Step:           8  Bead:       0 x_centroid{angstrom}  cell{atomic_unit}
       C -3.49022e-01 -1.02316e-01  1.12149e-01
       O  8.49317e-01  2.52629e-01 -2.11824e-01
       H -5.57408e-02  7.98232e-01 -6.23064e-01
       H -4.32708e-01 -9.22337e-01  8.31557e-01
       L  5.99378e+01 -2.06733e+00 -3.37210e+00
       L  3.44466e+00  1.38967e+01  3.31756e-01
6
# CELL(abcABC):  459.05226   459.05226   459.05226    90.00000    90.00000    90.00000  Step:           9  Bead:       0 x_centroid{angstrom}  cell{atomic_unit}
       C -3.50555e-01 -1.01495e-01  1.16540e-01
       O  8.50529e-01  2.51751e-01 -2.15454e-01
       H -5.56340e-02  7.93559e-01 -6.21107e-01
       H -4.33926e-01 -9.13685e-01  8.35122e-01
       L  5.97559e+01 -2.27588e+00 -3.70459e+00
       L  3.88036e+00  1.44332e+01  2.48717e-01
6
# CELL(abcABC):  459.05226   459.05226   459.05226    90.00000    90.00000    90.00000  Step:          10  Bead:       0 x_centroid{angstrom}  cell{atomic_unit}
       C -3.52076e-01 -1.00607e-01  1.21224e-01
       O  8.51741e-01  2.50871e-01 -2.19090e-01
       H -5.51014e-02  7.89388e-01 -6.20740e-01
       H -4.35712e-01 -9.06305e-01  8.36864e-01
       L  5.96440e+01 -2.43937e+00 -4.03882e+00
       L  4.25734e+00  1.49181e+01  2.20358e-01
6
# CELL(abcABC):  459.05226   459.05226   459.05226    90.00000    90.00000    90.00000  Step:          11  Bead:       0 x_centroid{angstrom}  cell{atomic_unit}
       C -3.53533e-01 -9.98780e-02  1.25938e-01
       O  8.52740e-01  2.50133e-01 -2.22687e-01
       H -5.24914e-02  7.86045e-01 -6.21702e-01
       H -4.36909e-01 -9.00129e-01  8.38888e-01
       L  5.94722e+01 -2.54068e+00 -4.32362e+00
       L  4.58138e+00  1.53595e+01  2.26364e-01
6
# CELL(abcABC):  459.05226   459.05226   459.05226    90.00000    90.00000    90.00000  Step:          12  Bead:       0 x_centroid{angstrom}  cell{atomic_unit}
       C -3.54729e-01 -9.91016e-02  1.30641e-01
       O  8.53309e-01  2.49300e-01 -2.26157e-01
       H -4.80128e-02  7.84942e-01 -6.24357e-01
       H -4.36242e-01 -8.95243e-01  8.40709e-01
       L  5.93282e+01 -2.63628e+00 -4.57965e+00
       L  4.85260e+00  1.58184e+01  2.63557e-01
6
# CELL(abcABC):  459.05226   459.05226   459.05226    90.00000    90.00000    90.00000  Step:          13  Bead:       0 x_centroid{angstrom}  cell{atomic_unit}
       C -3.55943e-01 -9.82110e-02  1.35209e-01
       O  8.53684e-01  2.48410e-01 -2.29481e-01
       H -3.98982e-02  7.85632e-01 -6.28263e-01
       H -4.35889e-01 -8.92601e-01  8.43069e-01
       L  5.92032e+01 -2.74013e+00 -4.80274e+00
       L  5.05988e+00  1.62621e+01  2.40965e-01
6
# CELL(abcABC):  459.05226   459.05226   459.05226    90.00000    90.00000    90.00000  Step:          14  Bead:       0 x_centroid{angstrom}  cell{atomic_unit}
       C -3.57302e-01 -9.73814e-02  1.39495e-01
       O  8.54112e-01  2.47637e-01 -2.32536e-01
       H -3.09327e-02  7.86024e-01 -6.33964e-01
       H -4.35491e-01 -8.90820e-01  8.46301e-01
       L  5.90853e+01 -2.80538e+00 -4.95994e+00
       L  5.25992e+00  1.66955e+01  2.26730e-01
6
# CELL(abcABC):  459.05226   459.05226   459.05226    90.00000    90.00000    90.00000  Step:          15  Bead:       0 x_centroid{angstrom}  cell{atomic_unit}
       C -3.59002e-01 -9.63428e-02  1.43854e-01
       O  8.54830e-01  2.46769e-01 -2.35615e-01
       H -2.29409e-02  7.87117e-01 -6.41084e-01
       H -4.34613e-01 -8.90722e-01  8.50442e-01
       L  5.88667e+01 -2.84334e+00 -5.09427e+00
       L  5.45916e+00  1.71153e+01  1.69166e-01
6
# CELL(abcABC):  459.05226   459.05226   459.05226    90.00000    90.00000    90.00000  Step:          16  Bead:       0 x_centroid{angstrom}  cell{atomic_unit}
       C -3.60775e-01 -9.53772e-02  1.48408e-01
       O  8.55823e-01  2.46032e-01 -2.38846e-01
       H -1.76562e-02  7.88010e-01 -6.48755e-01
       H -4.34471e-01 -8.91553e-01  8.55167e-01
       L  5.85980e+01 -2.91253e+00 -5.15649e+00
       L  5.59435e+00  1.74277e+01  1.62316e-01
6
# CELL(abcABC):  459.05226   459.05226   459.05226    90.00000    90.00000    90.00000  Step:          17  Bead:       0 x_centroid{angstrom}  cell{atomic_unit}
       C -3.62758e-01 -9.42986e-02  1.53130e-01
       O  8.57211e-01  2.45388e-01 -2.42187e-01
       H -1.51853e-02  7.86931e-01 -6.56929e-01
       H -4.35197e-01 -8.93263e-01  8.60132e-01
       L  5.82850e+01 -2.91938e+00 -5.16889e+00
       L  5.67476e+00  1.77481e+01  1.44708e-01
6
# CELL(abcABC):  459.05226   459.05226   459.05226    90.00000    90.00000    90.00000  Step:          18  Bead:       0 x_centroid{angstrom}  cell{atomic_unit}
       C -3.64961e-01 -9.31684e-02  1.57881e-01
       O  8.58973e-01  2.44860e-01 -2.45458e-01
       H -1.41288e-02  7.84038e-01 -6.65959e-01
       H -4.37817e-01 -8.95645e-01  8.64457e-01
       L  5.79265e+01 -2.86775e+00 -5.12251e+00
       L  5.71873e+00  1.80349e+01  1.19942e-01
6
# CELL(abcABC):  459.05226   459.05226   459.05226    90.00000    90.00000    90.00000  Step:          19  Bead:       0 x_centroid{angstrom}  cell{atomic_unit}
       C -3.67248e-01 -9.17112e-02  1.62889e-01
       O  8.60737e-01  2.44362e-01 -2.48950e-01
       H -1.21421e-02  7.78814e-01 -6.74377e-01
       H -4.40330e-01 -9.00047e-01  8.68634e-01
       L  5.75720e+01 -2.81037e+00 -5.05334e+00
       L  5.68835e+00  1.82757e+01  5.07036e-02
6
# CELL(abcABC):  459.05226   459.05226   459.05226    90.00000    90.00000    90.00000  Step:          20  Bead:       0 x_centroid{angstrom}  cell{atomic_unit}
       C -3.69622e-01 -9.01039e-02  1.68145e-01
       O  8.62466e-01  2.43909e-01 -2.52485e-01
       H -7.90989e-03  7.72878e-01 -6.84075e-01
       H -4.43432e-01 -9.06260e-01  8.71787e-01
       L  5.71375e+01 -2.65252e+00 -4.96764e+00
       L  5.58661e+00  1.84551e+01  8.06581e-03
6
# CELL(abcABC):  459.05226   459.05226   459.05226    90.00000    90.00000    90.00000  Step:          21  Bead:       0 x_centroid{angstrom}  cell{atomic_unit}
       C -3.71916e-01 -8.85401e-02  1.73579e-01
       O  8.64003e-01  2.43686e-01 -2.56155e-01
       H -2.00818e-03  7.65629e-01 -6.94414e-01
       H -4.46087e-01 -9.14247e-01  8.75560e-01
       L  5.66893e+01 -2.55067e+00 -4.83074e+00
       L  5.46085e+00  1.86144e+01 -1.72914e-02
6
# CELL(abcABC):  459.05226   459.05226   459.05226    90.00000    90.00000    90.00000  Step:          22  Bead:       0 x_centroid{angstrom}  cell{atomic_unit}
       C -3.74023e-01 -8.69117e-02  1.79163e-01
       O  8.65195e-01  2.43508e-01 -2.59736e-01
       H  6.92809e-03  7.56348e-01 -7.06098e-01
       H -4.48496e-01 -9.21680e-01  8.77468e-01
       L  5.62254e+01 -2.41583e+00 -4.65217e+00
       L  5.31096e+00  1.87412e+01 -3.99881e-02
6
# CELL(abcABC):  459.05226   459.05226   459.05226    90.00000    90.00000    90.00000  Step:          23  Bead:       0 x_centroid{angstrom}  cell{atomic_unit}
       C -3.76239e-01 -8.54629e-02  1.84920e-01
       O  8.66180e-01  2.43434e-01 -2.63432e-01
       H  1.78372e-02  7.48073e-01 -7.18484e-01
       H -4.48263e-01 -9.29670e-01  8.79819e-01
       L  5.57514e+01 -2.22444e+00 -4.37105e+00
       L  5.09388e+00  1.88600e+01 -1.37771e-01
6
# CELL(abcABC):  459.05226   459.05226   459.05226    90.00000    90.00000    90.00000  Step:          24  Bead:       0 x_centroid{angstrom}  cell{atomic_unit}
       C -3.78243e-01 -8.40859e-02  1.90808e-01
       O  8.66925e-01  2.43448e-01 -2.67203e-01
       H  3.05572e-02  7.39534e-01 -7.30454e-01
       H -4.48522e-01 -9.37928e-01  8.81352e-01
       L  5.52463e+01 -2.06389e+00 -4.00389e+00
       L  4.83758e+00  1.90107e+01 -2.60251e-01
6
# CELL(abcABC):  459.05226   459.05226   459.05226    90.00000    90.00000    90.00000  Step:          25  Bead:       0 x_centroid{angstrom}  cell{atomic_unit}
       C -3.80010e-01 -8.29662e-02  1.97041e-01
       O  8.67391e-01  2.43414e-01 -2.70990e-01
       H  4.56436e-02  7.33654e-01 -7.44281e-01
       H -4.49447e-01 -9.45060e-01  8.80884e-01
       L  5.46737e+01 -1.88032e+00 -3.61695e+00
       L  4.49061e+00  1.92119e+01 -3.90658e-01
6
# CELL(abcABC):  459.05226   459.05226   459.05226    90.00000    90.00000    90.00000  Step:          26  Bead:       0 x_centroid{angstrom}  cell{atomic_unit}
       C -3.82040e-01 -8.22044e-02  2.03459e-01
       O  8.67985e-01  2.43561e-01 -2.74784e-01
       H  6.06058e-02  7.29692e-01 -7.59800e-01
       H -4.49104e-01 -9.52742e-01  8.80002e-01
       L  5.40246e+01 -1.67590e+00 -3.17521e+00
       L  4.13980e+00  1.94481e+01 -5.51640e-01
6
# CELL(abcABC):  459.05226   459.05226   459.05226    90.00000    90.00000    90.00000  Step:          27  Bead:       0 x_centroid{angstrom}  cell{atomic_unit}
       C -3.83984e-01 -8.15864e-02  2.10138e-01
       O  8.68539e-01  2.43489e-01 -2.78720e-01
       H  7.40208e-02  7.28510e-01 -7.75700e-01
       H -4.47544e-01 -9.58012e-01  8.78621e-01
       L  5.33162e+01 -1.45808e+00 -2.69918e+00
       L  3.76700e+00  1.96574e+01 -7.45871e-01
6
# CELL(abcABC):  459.05226   459.05226   459.05226    90.00000    90.00000    90.00000  Step:          28  Bead:       0 x_centroid{angstrom}  cell{atomic_unit}
       C -3.86109e-01 -8.12474e-02  2.17028e-01
       O  8.69367e-01  2.43274e-01 -2.82698e-01
       H  8.51771e-02  7.29704e-01 -7.92926e-01
       H -4.45891e-01 -9.60066e-01  8.76715e-01
       L  5.25167e+01 -1.22815e+00 -2.19634e+00
       L  3.40699e+00  1.98522e+01 -9.16163e-01
6
# CELL(abcABC):  459.05226   459.05226   459.05226    90.00000    90.00000    90.00000  Step:          29  Bead:       0 x_centroid{angstrom}  cell{atomic_unit}
       C -3.88484e-01 -8.12148e-02  2.24298e-01
       O  8.70300e-01  2.43088e-01 -2.86773e-01
       H  9.65262e-02  7.33897e-01 -8.11853e-01
       H -4.43042e-01 -9.61919e-01  8.73503e-01
       L  5.15948e+01 -1.00798e+00 -1.67210e+00
       L  3.01133e+00  2.00497e+01 -1.09030e+00
6
# CELL(abcABC):  459.05226   459.05226   459.05226    90.00000    90.00000    90.00000  Step:          30  Bead:       0 x_centroid{angstrom}  cell{atomic_unit}
       C -3.90992e-01 -8.13042e-02  2.31675e-01
       O  8.71253e-01  2.42801e-01 -2.90896e-01
       H  1.08776e-01  7.39603e-01 -8.30873e-01
       H -4.39755e-01 -9.62236e-01  8.69884e-01
       L  5.05847e+01 -8.17335e-01 -1.14438e+00
       L  2.60209e+00  2.02769e+01 -1.26319e+00
6
# CELL(abcABC):  459.05226   459.05226   459.05226    90.00000    90.00000    90.00000  Step:          31  Bead:       0 x_centroid{angstrom}  cell{atomic_unit}
       C -3.93800e-01 -8.11891e-02  2.39363e-01
       O  8.72155e-01  2.42388e-01 -2.95383e-01
       H  1.23729e-01  7.45039e-01 -8.48518e-01
       H -4.34737e-01 -9.62730e-01  8.66925e-01
       L  4.94775e+01 -6.29884e-01 -5.84108e-01
       L  2.19047e+00  2.05196e+01 -1.44279e+00
6
# CELL(abcABC):  459.05226   459.05226   459.05226    90.00000    90.00000    90.00000  Step:          32  Bead:       0 x_centroid{angstrom}  cell{atomic_unit}
       C -3.96836e-01 -8.12192e-02  2.46843e-01
       O  8.72859e-01  2.42251e-01 -2.99917e-01
       H  1.43153e-01  7.49691e-01 -8.64446e-01
       H -4.28269e-01 -9.65102e-01  8.65488e-01
       L  4.82578e+01 -4.37247e-01 -3.92773e-02
       L  1.76564e+00  2.07967e+01 -1.62679e+00
6
# CELL(abcABC):  459.05226   459.05226   459.05226    90.00000    90.00000    90.00000  Step:          33  Bead:       0 x_centroid{angstrom}  cell{atomic_unit}
       C -4.00103e-01 -8.13474e-02  2.54269e-01
       O  8.73354e-01  2.42261e-01 -3.04549e-01
       H  1.67165e-01  7.53957e-01 -8.79366e-01
       H -4.20252e-01 -9.68247e-01  8.65260e-01
       L  4.69933e+01 -2.61658e-01  4.56989e-01
       L  1.26732e+00  2.10713e+01 -1.78551e+00
6
# CELL(abcABC):  459.05226   459.05226   459.05226    90.00000    90.00000    90.00000  Step:          34  Bead:       0 x_centroid{angstrom}  cell{atomic_unit}
       C -4.03846e-01 -8.15168e-02  2.61898e-01
       O  8.73868e-01  2.42279e-01 -3.09584e-01
       H  1.95796e-01  7.59215e-01 -8.92049e-01
       H -4.11427e-01 -9.72010e-01  8.66763e-01
       L  4.56989e+01 -1.36347e-01  9.83163e-01
       L  7.17918e-01  2.13852e+01 -1.93826e+00
6
# CELL(abcABC):  459.05226   459.05226   459.05226    90.00000    90.00000    90.00000  Step:          35  Bead:       0 x_centroid{angstrom}  cell{atomic_unit}
       C -4.08027e-01 -8.16052e-02  2.69570e-01
       O  8.74319e-01  2.42304e-01 -3.14830e-01
       H  2.28338e-01  7.64700e-01 -9.03457e-01
       H -4.00218e-01 -9.77078e-01  8.69843e-01
       L  4.43129e+01  1.07798e-02  1.48900e+00
       L  9.26102e-02  2.16915e+01 -2.09099e+00
6
# CELL(abcABC):  459.05226   459.05226   459.05226    90.00000    90.00000    90.00000  Step:          36  Bead:       0 x_centroid{angstrom}  cell{atomic_unit}
       C -4.12718e-01 -8.17106e-02  2.77230e-01
       O  8.74805e-01  2.42532e-01 -3.20228e-01
       H  2.65805e-01  7.69099e-01 -9.12680e-01
       H -3.88316e-01 -9.84101e-01  8.73224e-01
       L  4.27720e+01  1.39066e-01  2.06749e+00
       L -5.37775e-01  2.20257e+01 -2.24143e+00
6
# CELL(abcABC):  459.05226   459.05226   459.05226    90.00000    90.00000    90.00000  Step:          37  Bead:       0 x_centroid{angstrom}  cell{atomic_unit}
       C -4.17927e-01 -8.17923e-02  2.84982e-01
       O  8.75259e-01  2.42888e-01 -3.25774e-01
       H  3.07295e-01  7.72525e-01 -9.21654e-01
       H -3.73716e-01 -9.92440e-01  8.77606e-01
       L  4.11320e+01  2.36409e-01  2.68801e+00
       L -1.16093e+00  2.23766e+01 -2.39307e+00
6
# CELL(abcABC):  459.05226   459.05226   459.05226    90.00000    90.00000    90.00000  Step:          38  Bead:       0 x_centroid{angstrom}  cell{atomic_unit}
       C -4.23355e-01 -8.17900e-02  2.92687e-01
       O  8.75637e-01  2.43322e-01 -3.31381e-01
       H  3.50446e-01  7.76736e-01 -9.29441e-01
       H -3.56918e-01 -1.00386e+00  8.82338e-01
       L  3.94219e+01  3.81245e-01  3.28284e+00
       L -1.77859e+00  2.27630e+01 -2.53951e+00
6
# CELL(abcABC):  459.05226   459.05226   459.05226    90.00000    90.00000    90.00000  Step:          39  Bead:       0 x_centroid{angstrom}  cell{atomic_unit}
       C -4.29045e-01 -8.17204e-02  3.00470e-01
       O  8.76075e-01  2.43527e-01 -3.37019e-01
       H  3.95616e-01  7.83282e-01 -9.38093e-01
       H -3.39902e-01 -1.01475e+00  8.87500e-01
       L  3.75760e+01  5.30857e-01  3.82781e+00
       L -2.40881e+00  2.30897e+01 -2.63271e+00
6
# CELL(abcABC):  459.05226   459.05226   459.05226    90.00000    90.00000    90.00000  Step:          40  Bead:       0 x_centroid{angstrom}  cell{atomic_unit}
       C -4.35080e-01 -8.14975e-02  3.08429e-01
       O  8.76828e-01  2.43557e-01 -3.42517e-01
       H  4.39353e-01  7.90251e-01 -9.49098e-01
       H -3.22284e-01 -1.02512e+00  8.90721e-01
       L  3.55769e+01  7.02762e-01  4.29297e+00
       L -2.95529e+00  2.34122e+01 -2.71282e+00
6
# CELL(abcABC):  459.05226   459.05226   459.05226    90.00000    90.00000    90.00000  Step:          41  Bead:       0 x_centroid{angstrom}  cell{atomic_unit}
       C -4.41367e-01 -8.13742e-02  3.16607e-01
       O  8.77807e-01  2.43481e-01 -3.47942e-01
       H  4.80247e-01  7.98377e-01 -9.61944e-01
       H -3.02400e-01 -1.03376e+00  8.92028e-01
       L  3.35224e+01  8.41214e-01  4.70928e+00
       L -3.46949e+00  2.37331e+01 -2.75853e+00
6
# CELL(abcABC):  459.05226   459.05226   459.05226    90.00000    90.00000    90.00000  Step:          42  Bead:       0 x_centroid{angstrom}  cell{atomic_unit}
       C -4.47648e-01 -8.13004e-02  3.24954e-01
       O  8.78911e-01  2.43256e-01 -3.53283e-01
       H  5.18063e-01  8.06998e-01 -9.75719e-01
       H -2.81491e-01 -1.03990e+00  8.90954e-01
       L  3.14024e+01  9.95049e-01  5.09889e+00
       L -3.94326e+00  2.39532e+01 -2.84893e+00
6
# CELL(abcABC):  459.05226   459.05226   459.05226    90.00000    90.00000    90.00000  Step:          43  Bead:       0 x_centroid{angstrom}  cell{atomic_unit}
       C -4.53550e-01 -8.11081e-02  3.33271e-01
       O  8.79926e-01  2.42700e-01 -3.58162e-01
       H  5.52502e-01  8.17255e-01 -9.93663e-01
       H -2.60289e-01 -1.04381e+00  8.87172e-01
       L  2.92434e+01  1.16066e+00  5.36327e+00
       L -4.39052e+00  2.41516e+01 -2.99014e+00
6
# CELL(abcABC):  459.05226   459.05226   459.05226    90.00000    90.00000    90.00000  Step:          44  Bead:       0 x_centroid{angstrom}  cell{atomic_unit}
       C -4.59162e-01 -8.12813e-02  3.41610e-01
       O  8.80950e-01  2.42137e-01 -3.62688e-01
       H  5.84141e-01  8.28627e-01 -1.01460e+00
       H -2.39874e-01 -1.04431e+00  8.80540e-01
       L  2.70470e+01  1.27388e+00  5.59197e+00
       L -4.81848e+00  2.42720e+01 -3.12090e+00
6
# CELL(abcABC):  459.05226   459.05226   459.05226    90.00000    90.00000    90.00000  Step:          45  Bead:       0 x_centroid{angstrom}  cell{atomic_unit}
       C -4.64347e-01 -8.16796e-02  3.49929e-01
       O  8.81825e-01  2.41548e-01 -3.66937e-01
       H  6.14606e-01  8.39922e-01 -1.03765e+00
       H -2.21046e-01 -1.04155e+00  8.71822e-01
       L  2.47918e+01  1.35725e+00  5.78647e+00
       L -5.14838e+00  2.42737e+01 -3.19350e+00
6
# CELL(abcABC):  459.05226   459.05226   459.05226    90.00000    90.00000    90.00000  Step:          46  Bead:       0 x_centroid{angstrom}  cell{atomic_unit}
       C -4.68510e-01 -8.23280e-02  3.58180e-01
       O  8.82025e-01  2.41084e-01 -3.70793e-01
       H  6.45932e-01  8.48221e-01 -1.06331e+00
       H -2.04575e-01 -1.03478e+00  8.60318e-01
       L  2.25845e+01  1.39211e+00  5.88904e+00
       L -5.45372e+00  2.42664e+01 -3.18201e+00
6
# CELL(abcABC):  459.05226   459.05226   459.05226    90.00000    90.00000    90.00000  Step:          47  Bead:       0 x_centroid{angstrom}  cell{atomic_unit}
       C -4.71947e-01 -8.28181e-02  3.66277e-01
       O  8.81852e-01  2.40499e-01 -3.74580e-01
       H  6.76743e-01  8.53940e-01 -1.08770e+00
       H -1.90329e-01 -1.02537e+00  8.48292e-01
       L  2.03686e+01  1.44116e+00  5.89010e+00
       L -5.73862e+00  2.42148e+01 -3.09908e+00
6
# CELL(abcABC):  459.05226   459.05226   459.05226    90.00000    90.00000    90.00000  Step:          48  Bead:       0 x_centroid{angstrom}  cell{atomic_unit}
       C -4.74450e-01 -8.31044e-02  3.73999e-01
       O  8.81097e-01  2.39927e-01 -3.78097e-01
       H  7.07640e-01  8.55747e-01 -1.10968e+00
       H -1.78127e-01 -1.01463e+00  8.34048e-01
       L  1.81811e+01  1.48544e+00  5.86526e+00
       L -5.91464e+00  2.40687e+01 -2.99211e+00
6
# CELL(abcABC):  459.05226   459.05226   459.05226    90.00000    90.00000    90.00000  Step:          49  Bead:       0 x_centroid{angstrom}  cell{atomic_unit}
       C -4.76087e-01 -8.33348e-02  3.81237e-01
       O  8.79728e-01  2.39433e-01 -3.81459e-01
       H  7.37901e-01  8.53700e-01 -1.12854e+00
       H -1.65929e-01 -1.00191e+00  8.20006e-01
       L  1.60412e+01  1.54492e+00  5.73916e+00
       L -6.00185e+00  2.38459e+01 -2.85658e+00
6
# CELL(abcABC):  459.05226   459.05226   459.05226    90.00000    90.00000    90.00000  Step:          50  Bead:       0 x_centroid{angstrom}  cell{atomic_unit}
       C -4.76708e-01 -8.30916e-02  3.87671e-01
       O  8.77572e-01  2.38871e-01 -3.84532e-01
       H  7.67855e-01  8.48876e-01 -1.14309e+00
       H -1.53104e-01 -9.90934e-01  8.06662e-01
       L  1.39831e+01  1.56727e+00  5.58075e+00
       L -6.05806e+00  2.35907e+01 -2.68570e+00
6
# CELL(abcABC):  459.05226   459.05226   459.05226    90.00000    90.00000    90.00000  Step:          51  Bead:       0 x_centroid{angstrom}  cell{atomic_unit}
       C -4.76185e-01 -8.22730e-02  3.93220e-01
       O  8.74605e-01  2.38104e-01 -3.87273e-01
       H  7.95739e-01  8.41341e-01 -1.15480e+00
       H -1.38988e-01 -9.80826e-01  7.95787e-01
       L  1.19335e+01  1.56298e+00  5.34655e+00
       L -6.08635e+00  2.33141e+01 -2.49349e+00
6
# CELL(abcABC):  459.05226   459.05226   459.05226    90.00000    90.00000    90.00000  Step:          52  Bead:       0 x_centroid{angstrom}  cell{atomic_unit}
       C -4.74835e-01 -8.07989e-02  3.98096e-01
       O  8.71074e-01  2.37119e-01 -3.89905e-01
       H  8.21457e-01  8.33318e-01 -1.16296e+00
       H -1.23635e-01 -9.74576e-01  7.87677e-01
       L  9.86033e+00  1.60171e+00  5.02677e+00
       L -6.08738e+00  2.29830e+01 -2.27390e+00
6
# CELL(abcABC):  459.05226   459.05226   459.05226    90.00000    90.00000    90.00000  Step:          53  Bead:       0 x_centroid{angstrom}  cell{atomic_unit}
       C -4.72621e-01 -7.86910e-02  4.02059e-01
       O  8.67009e-01  2.36007e-01 -3.92296e-01
       H  8.44350e-01  8.24199e-01 -1.16700e+00
       H -1.07282e-01 -9.72696e-01  7.82523e-01
       L  7.80585e+00  1.60114e+00  4.61966e+00
       L -6.04573e+00  2.25762e+01 -2.01854e+00
6
# CELL(abcABC):  459.05226   459.05226   459.05226    90.00000    90.00000    90.00000  Step:          54  Bead:       0 x_centroid{angstrom}  cell{atomic_unit}
       C -4.69568e-01 -7.58715e-02  4.05068e-01
       O  8.62369e-01  2.34631e-01 -3.94465e-01
       H  8.64413e-01  8.15015e-01 -1.16623e+00
       H -8.90106e-02 -9.75022e-01  7.80469e-01
       L  5.72171e+00  1.62240e+00  4.15942e+00
       L -5.91029e+00  2.21070e+01 -1.80715e+00
6
# CELL(abcABC):  459.05226   459.05226   459.05226    90.00000    90.00000    90.00000  Step:          55  Bead:       0 x_centroid{angstrom}  cell{atomic_unit}
       C -4.65834e-01 -7.26558e-02  4.07343e-01
       O  8.57317e-01  2.33206e-01 -3.96404e-01
       H  8.81318e-01  8.05206e-01 -1.16292e+00
       H -6.92091e-02 -9.80635e-01  7.80967e-01
       L  3.62152e+00  1.63207e+00  3.65318e+00
       L -5.67531e+00  2.15892e+01 -1.57791e+00
6
# CELL(abcABC):  459.05226   459.05226   459.05226    90.00000    90.00000    90.00000  Step:          56  Bead:       0 x_centroid{angstrom}  cell{atomic_unit}
       C -4.61399e-01 -6.89232e-02  4.08678e-01
       O  8.51889e-01  2.31567e-01 -3.97916e-01
       H  8.95341e-01  7.95120e-01 -1.15798e+00
       H -4.89439e-02 -9.88722e-01  7.84277e-01
       L  1.53068e+00  1.65911e+00  3.13417e+00
       L -5.35352e+00  2.10375e+01 -1.32478e+00
6
# CELL(abcABC):  459.05226   459.05226   459.05226    90.00000    90.00000    90.00000  Step:          57  Bead:       0 x_centroid{angstrom}  cell{atomic_unit}
       C -4.56223e-01 -6.51173e-02  4.09721e-01
       O  8.46279e-01  2.30051e-01 -3.99220e-01
       H  9.04798e-01  7.84558e-01 -1.15411e+00
       H -3.00571e-02 -9.99184e-01  7.88774e-01
       L -6.24313e-01  1.66995e+00  2.63532e+00
       L -4.99906e+00  2.05314e+01 -1.00659e+00
6
# CELL(abcABC):  459.05226   459.05226   459.05226    90.00000    90.00000    90.00000  Step:          58  Bead:       0 x_centroid{angstrom}  cell{atomic_unit}
       C -4.50027e-01 -6.13669e-02  4.10621e-01
       O  8.40325e-01  2.28503e-01 -4.00390e-01
       H  9.09204e-01  7.74582e-01 -1.15043e+00
       H -1.27882e-02 -1.00910e+00  7.93079e-01
       L -2.86465e+00  1.75623e+00  2.08987e+00
       L -4.57519e+00  2.00423e+01 -7.32138e-01
6
# CELL(abcABC):  459.05226   459.05226   459.05226    90.00000    90.00000    90.00000  Step:          59  Bead:       0 x_centroid{angstrom}  cell{atomic_unit}
       C -4.43437e-01 -5.77201e-02  4.11441e-01
       O  8.34621e-01  2.26903e-01 -4.01368e-01
       H  9.07523e-01  7.65133e-01 -1.14732e+00
       H  1.90003e-03 -1.01744e+00  7.95881e-01
       L -5.11745e+00  1.82719e+00  1.54137e+00
       L -4.14630e+00  1.94554e+01 -4.46473e-01
6
# CELL(abcABC):  459.05226   459.05226   459.05226    90.00000    90.00000    90.00000  Step:          60  Bead:       0 x_centroid{angstrom}  cell{atomic_unit}
       C -4.36373e-01 -5.43410e-02  4.12202e-01
       O  8.29153e-01  2.25381e-01 -4.02192e-01
       H  8.99769e-01  7.55261e-01 -1.14528e+00
       H  1.32718e-02 -1.02335e+00  7.98016e-01
       L -7.40816e+00  1.87073e+00  9.39223e-01
       L -3.69155e+00  1.88273e+01 -1.50133e-01
6
# CELL(abcABC):  459.05226   459.05226   459.05226    90.00000    90.00000    90.00000  Step:          61  Bead:       0 x_centroid{angstrom}  cell{atomic_unit}
       C -4.28866e-01 -5.11890e-02  4.13118e-01
       O  8.24064e-01  2.23727e-01 -4.02789e-01
       H  8.86619e-01  7.46375e-01 -1.14685e+00
       H  1.87359e-02 -1.02544e+00  7.98348e-01
       L -9.72708e+00  1.92535e+00  3.11983e-01
       L -3.19345e+00  1.81620e+01  9.97917e-02
6
# CELL(abcABC):  459.05226   459.05226   459.05226    90.00000    90.00000    90.00000  Step:          62  Bead:       0 x_centroid{angstrom}  cell{atomic_unit}
       C -4.20983e-01 -4.82449e-02  4.13982e-01
       O  8.19260e-01  2.21884e-01 -4.03062e-01
       H  8.68715e-01  7.39185e-01 -1.15191e+00
       H  1.99142e-02 -1.02369e+00  7.97705e-01
       L -1.21085e+01  1.92972e+00 -3.84725e-01
       L -2.58321e+00  1.74447e+01  3.20221e-01
6
# CELL(abcABC):  459.05226   459.05226   459.05226    90.00000    90.00000    90.00000  Step:          63  Bead:       0 x_centroid{angstrom}  cell{atomic_unit}
       C -4.12845e-01 -4.54716e-02  4.14513e-01
       O  8.14835e-01  2.19764e-01 -4.02678e-01
       H  8.46281e-01  7.34016e-01 -1.16180e+00
       H  1.66268e-02 -1.01746e+00  7.95472e-01
       L -1.45692e+01  1.85157e+00 -1.13732e+00
       L -1.96988e+00  1.66951e+01  5.37545e-01
6
# CELL(abcABC):  459.05226   459.05226   459.05226    90.00000    90.00000    90.00000  Step:          64  Bead:       0 x_centroid{angstrom}  cell{atomic_unit}
       C -4.03739e-01 -4.28814e-02  4.14757e-01
       O  8.10185e-01  2.17418e-01 -4.01951e-01
       H  8.19380e-01  7.31469e-01 -1.17423e+00
       H  9.87240e-03 -1.00809e+00  7.93714e-01
       L -1.71131e+01  1.75936e+00 -1.87173e+00
       L -1.32879e+00  1.59429e+01  7.79420e-01
6
# CELL(abcABC):  459.05226   459.05226   459.05226    90.00000    90.00000    90.00000  Step:          65  Bead:       0 x_centroid{angstrom}  cell{atomic_unit}
       C -3.94219e-01 -4.02405e-02  4.14641e-01
       O  8.05687e-01  2.14796e-01 -4.00794e-01
       H  7.88034e-01  7.30552e-01 -1.18792e+00
       H  2.12243e-04 -9.96546e-01  7.90690e-01
       L -1.96729e+01  1.62713e+00 -2.61103e+00
       L -6.88482e-01  1.52170e+01  1.01264e+00
6
# CELL(abcABC):  459.05226   459.05226   459.05226    90.00000    90.00000    90.00000  Step:          66  Bead:       0 x_centroid{angstrom}  cell{atomic_unit}
       C -3.84380e-01 -3.74406e-02  4.14149e-01