6
# CELL(abcABC):  459.05226   459.05226   459.05226    90.00000    90.00000    90.00000  Step:           0  Bead:       0 x_centroid{angstrom}  cell{atomic_unit}
       C -3.39887e-01 -1.13437e-01  8.06659e-02
       O  8.43483e-01  2.62672e-01 -1.81512e-01
       H -7.35799e-02  8.16467e-01 -6.61432e-01
       H -4.30016e-01 -9.65701e-01  7.62278e-01
       L  6.13458e+01  0.00000e+00  0.00000e+00
       L  0.00000e+00  8.59064e+00  0.00000e+00
6
# CELL(abcABC):  459.05226   459.05226   459.05226    90.00000    90.00000    90.00000  Step:           1  Bead:       0 x_centroid{angstrom}  cell{atomic_unit}
       C -3.38244e-01 -1.15522e-01  7.84829e-02
       O  8.43248e-01  2.63026e-01 -1.79746e-01
       H -8.19954e-02  8.37657e-01 -6.71664e-01
       H -4.37406e-01 -9.67624e-01  7.70795e-01
       L  6.13959e+01 -4.03100e-02 -5.58111e-02
       L -1.26038e-01  8.55157e+00 -5.22923e-01
6
# CELL(abcABC):  459.05226   459.05226   459.05226    90.00000    90.00000    90.00000  Step:           2  Bead:       0 x_centroid{angstrom}  cell{atomic_unit}
       C -3.36479e-01 -1.17222e-01  7.59030e-02
       O  8.42772e-01  2.63368e-01 -1.77717e-01
       H -8.81895e-02  8.53984e-01 -6.78724e-01
       H -4.44602e-01 -9.69035e-01  7.76729e-01
       L  6.14550e+01 -9.08602e-02 -1.69393e-01
       L -3.20890e-01  8.44246e+00 -1.03310e+00
6
# CELL(abcABC):  459.05226   459.05226   459.05226    90.00000    90.00000    90.00000  Step:           3  Bead:       0 x_centroid{angstrom}  cell{atomic_unit}
       C -3.34773e-01 -1.18693e-01  7.34015e-02
       O  8.42069e-01  2.63855e-01 -1.75738e-01
       H -9.16684e-02  8.64380e-01 -6.82805e-01
       H -4.50258e-01 -9.69559e-01  7.79549e-01
       L  6.15134e+01 -1.32917e-01 -2.94791e-01
       L -4.75647e-01  8.32316e+00 -1.53139e+00
6
# CELL(abcABC):  459.05226   459.05226   459.05226    90.00000    90.00000    90.00000  Step:           4  Bead:       0 x_centroid{angstrom}  cell{atomic_unit}
       C -3.33220e-01 -1.20022e-01  7.08466e-02
       O  8.41342e-01  2.64714e-01 -1.73763e-01
       H -9.37276e-02  8.66573e-01 -6.83118e-01
       H -4.55127e-01 -9.69472e-01  7.79332e-01
       L  6.15777e+01 -1.33564e-01 -4.76402e-01
       L -5.96695e-01  8.21206e+00 -2.05574e+00
6
# CELL(abcABC):  459.05226   459.05226   459.05226    90.00000    90.00000    90.00000  Step:           5  Bead:       0 x_centroid{angstrom}  cell{atomic_unit}
       C -3.31781e-01 -1.21318e-01  6.85088e-02
       O  8.40544e-01  2.66122e-01 -1.71955e-01
       H -9.33976e-02  8.59664e-01 -6.79537e-01
       H -4.59929e-01 -9.69386e-01  7.75282e-01
       L  6.17195e+01 -1.40662e-01 -6.72747e-01
       L -7.49446e-01  8.04423e+00 -2.52593e+00
6
# CELL(abcABC):  459.05226   459.05226   459.05226    90.00000    90.00000    90.00000  Step:           6  Bead:       0 x_centroid{angstrom}  cell{atomic_unit}
       C -3.30510e-01 -1.22455e-01  6.66937e-02
       O  8.39658e-01  2.67709e-01 -1.70557e-01
       H -9.06247e-02  8.46040e-01 -6.71844e-01
       H -4.63814e-01 -9.67288e-01  7.67395e-01
       L  6.19266e+01 -1.45614e-01 -8.74058e-01
       L -8.99374e-01  7.82392e+00 -3.01471e+00
6
# CELL(abcABC):  459.05226   459.05226   459.05226    90.00000    90.00000    90.00000  Step:           7  Bead:       0 x_centroid{angstrom}  cell{atomic_unit}
       C -3.29091e-01 -1.23479e-01  6.50929e-02
       O  8.38414e-01  2.69429e-01 -1.69174e-01
       H -8.53580e-02  8.29167e-01 -6.63861e-01
       H -4.66280e-01 -9.65397e-01  7.56849e-01
       L  6.21564e+01 -1.30163e-01 -1.03076e+00
       L -1.05095e+00  7.58871e+00 -3.41953e+00
6
# CELL(abcABC):  459.05226   459.05226   459.05226    90.00000    90.00000    90.00000  Step:           8  Bead:       0 x_centroid{angstrom}  cell{atomic_unit}
       C -3.27925e-01 -1.24313e-01  6.32529e-02
       O  8.37262e-01  2.71137e-01 -1.67618e-01
       H -8.04617e-02  8.10370e-01 -6.55997e-01
       H -4.66854e-01 -9.63607e-01  7.46439e-01
       L  6.23980e+01 -1.45444e-01 -1.12197e+00
       L -1.18682e+00  7.30488e+00 -3.74376e+00
6
# CELL(abcABC):  459.05226   459.05226   459.05226    90.00000    90.00000    90.00000  Step:           9  Bead:       0 x_centroid{angstrom}  cell{atomic_unit}
       C -3.26877e-01 -1.25037e-01  6.11904e-02
       O  8.36217e-01  2.72569e-01 -1.65865e-01
       H -7.62220e-02  7.94443e-01 -6.49747e-01
       H -4.66991e-01 -9.61620e-01  7.37141e-01
       L  6.26350e+01 -1.41654e-01 -1.21022e+00
       L -1.41516e+00  7.02406e+00 -4.02678e+00
6
# CELL(abcABC):  459.05226   459.05226   459.05226    90.00000    90.00000    90.00000  Step:          10  Bead:       0 x_centroid{angstrom}  cell{atomic_unit}
       C -3.25856e-01 -1.25843e-01  5.90681e-02
       O  8.35264e-01  2.73718e-01 -1.64009e-01
       H -7.40114e-02  7.83629e-01 -6.46487e-01
       H -4.66223e-01 -9.59268e-01  7.29874e-01
       L  6.28501e+01 -1.91315e-01 -1.28241e+00
       L -1.66897e+00  6.75745e+00 -4.25494e+00
6
# CELL(abcABC):  459.05226   459.05226   459.05226    90.00000    90.00000    90.00000  Step:          11  Bead:       0 x_centroid{angstrom}  cell{atomic_unit}
       C -3.24944e-01 -1.26595e-01  5.65474e-02
       O  8.34475e-01  2.74462e-01 -1.61878e-01
       H -7.34165e-02  7.80007e-01 -6.46958e-01
       H -4.65122e-01 -9.58370e-01  7.26716e-01
       L  6.30387e+01 -2.82671e-01 -1.37097e+00
       L -1.91878e+00  6.61478e+00 -4.48166e+00
6
# CELL(abcABC):  459.05226   459.05226   459.05226    90.00000    90.00000    90.00000  Step:          12  Bead:       0 x_centroid{angstrom}  cell{atomic_unit}
       C -3.24322e-01 -1.27294e-01  5.35632e-02
       O  8.33982e-01  2.74788e-01 -1.59515e-01
       H -7.41020e-02  7.85142e-01 -6.50221e-01
       H -4.64070e-01 -9.60246e-01  7.28165e-01
       L  6.32847e+01 -4.02862e-01 -1.46283e+00
       L -2.09697e+00  6.55649e+00 -4.63836e+00
6
# CELL(abcABC):  459.05226   459.05226   459.05226    90.00000    90.00000    90.00000  Step:          13  Bead:       0 x_centroid{angstrom}  cell{atomic_unit}
       C -3.24043e-01 -1.28309e-01  5.04018e-02
       O  8.34000e-01  2.75101e-01 -1.57004e-01
       H -7.92538e-02  7.96026e-01 -6.56389e-01
       H -4.62538e-01 -9.63973e-01  7.32252e-01
       L  6.34600e+01 -5.11059e-01 -1.51425e+00
       L -2.24862e+00  6.58597e+00 -4.75506e+00
6
# CELL(abcABC):  459.05226   459.05226   459.05226    90.00000    90.00000    90.00000  Step:          14  Bead:       0 x_centroid{angstrom}  cell{atomic_unit}
       C -3.24140e-01 -1.29287e-01  4.70739e-02
       O  8.34293e-01  2.75177e-01 -1.54488e-01
       H -8.52582e-02  8.09586e-01 -6.63170e-01
       H -4.60018e-01 -9.67121e-01  7.38810e-01
       L  6.36013e+01 -5.62174e-01 -1.55450e+00
       L -2.41272e+00  6.69782e+00 -4.82834e+00
6
# CELL(abcABC):  459.05226   459.05226   459.05226    90.00000    90.00000    90.00000  Step:          15  Bead:       0 x_centroid{angstrom}  cell{atomic_unit}
       C -3.24440e-01 -1.30360e-01  4.34436e-02
       O  8.34789e-01  2.75220e-01 -1.51621e-01
       H -9.28594e-02  8.25656e-01 -6.72892e-01
       H -4.56683e-01 -9.71127e-01  7.46291e-01
       L  6.36991e+01 -6.53477e-01 -1.53752e+00
       L -2.56335e+00  6.86272e+00 -4.85656e+00
6
# CELL(abcABC):  459.05226   459.05226   459.05226    90.00000    90.00000    90.00000  Step:          16  Bead:       0 x_centroid{angstrom}  cell{atomic_unit}
       C -3.25093e-01 -1.31294e-01  4.04071e-02
       O  8.35629e-01  2.75219e-01 -1.49172e-01
       H -1.01803e-01  8.40600e-01 -6.82224e-01
       H -4.53305e-01 -9.74984e-01  7.52927e-01
       L  6.38305e+01 -7.51631e-01 -1.52819e+00
       L -2.66924e+00  7.06415e+00 -4.86458e+00
6
# CELL(abcABC):  459.05226   459.05226   459.05226    90.00000    90.00000    90.00000  Step:          17  Bead:       0 x_centroid{angstrom}  cell{atomic_unit}
       C -3.26290e-01 -1.32042e-01  3.77619e-02
       O  8.36797e-01  2.75330e-01 -1.46969e-01
       H -1.10341e-01  8.51491e-01 -6.91191e-01
       H -4.49079e-01 -9.78770e-01  7.58376e-01
       L  6.39437e+01 -8.26153e-01 -1.46507e+00
       L -2.71393e+00  7.24114e+00 -4.81103e+00
6
# CELL(abcABC):  459.05226   459.05226   459.05226    90.00000    90.00000    90.00000  Step:          18  Bead:       0 x_centroid{angstrom}  cell{atomic_unit}
       C -3.27626e-01 -1.32488e-01  3.50803e-02
       O  8.37834e-01  2.75583e-01 -1.44846e-01
       H -1.14770e-01  8.56943e-01 -6.96743e-01
       H -4.45240e-01 -9.82966e-01  7.62152e-01
       L  6.40456e+01 -9.00585e-01 -1.45780e+00
       L -2.71402e+00  7.37463e+00 -4.76007e+00
6
# CELL(abcABC):  459.05226   459.05226   459.05226    90.00000    90.00000    90.00000  Step:          19  Bead:       0 x_centroid{angstrom}  cell{atomic_unit}
       C -3.28688e-01 -1.32783e-01  3.22564e-02
       O  8.38364e-01  2.76154e-01 -1.42655e-01
       H -1.14586e-01  8.54850e-01 -6.99175e-01
       H -4.41319e-01 -9.86433e-01  7.63353e-01
       L  6.42367e+01 -9.37804e-01 -1.41803e+00
       L -2.67283e+00  7.43850e+00 -4.59976e+00
6
# CELL(abcABC):  459.05226   459.05226   459.05226    90.00000    90.00000    90.00000  Step:          20  Bead:       0 x_centroid{angstrom}  cell{atomic_unit}
       C -3.29215e-01 -1.32965e-01  2.99618e-02
       O  8.38342e-01  2.76959e-01 -1.40901e-01
       H -1.11433e-01  8.47206e-01 -6.96982e-01
       H -4.37978e-01 -9.89389e-01  7.60543e-01
       L  6.45003e+01 -9.74157e-01 -1.43347e+00
       L -2.68598e+00  7.45230e+00 -4.37761e+00
6
# CELL(abcABC):  459.05226   459.05226   459.05226    90.00000    90.00000    90.00000  Step:          21  Bead:       0 x_centroid{angstrom}  cell{atomic_unit}
       C -3.29671e-01 -1.32942e-01  2.76561e-02
       O  8.38184e-01  2.77864e-01 -1.39147e-01
       H -1.05367e-01  8.34059e-01 -6.91536e-01
       H -4.36245e-01 -9.90845e-01  7.54547e-01
       L  6.48011e+01 -9.81585e-01 -1.41657e+00
       L -2.72615e+00  7.39553e+00 -4.05491e+00
6
# CELL(abcABC):  459.05226   459.05226   459.05226    90.00000    90.00000    90.00000  Step:          22  Bead:       0 x_centroid{angstrom}  cell{atomic_unit}
       C -3.29712e-01 -1.32886e-01  2.57367e-02
       O  8.37540e-01  2.78944e-01 -1.37598e-01
       H -9.66482e-02  8.17142e-01 -6.85222e-01
       H -4.34429e-01 -9.91636e-01  7.46289e-01
       L  6.51330e+01 -1.04153e+00 -1.36258e+00
       L -2.74068e+00  7.27827e+00 -3.68372e+00
6
# CELL(abcABC):  459.05226   459.05226   459.05226    90.00000    90.00000    90.00000  Step:          23  Bead:       0 x_centroid{angstrom}  cell{atomic_unit}
       C -3.29453e-01 -1.33134e-01  2.40526e-02
       O  8.36583e-01  2.80179e-01 -1.36289e-01
       H -8.62773e-02  7.98905e-01 -6.78036e-01
       H -4.32891e-01 -9.89962e-01  7.38126e-01
       L  6.55150e+01 -1.09383e+00 -1.27557e+00
       L -2.75312e+00  7.18028e+00 -3.28022e+00
6
# CELL(abcABC):  459.05226   459.05226   459.05226    90.00000    90.00000    90.00000  Step:          24  Bead:       0 x_centroid{angstrom}  cell{atomic_unit}
       C -3.29471e-01 -1.33542e-01  2.24406e-02
       O  8.35960e-01  2.81275e-01 -1.34998e-01
       H -7.79325e-02  7.82425e-01 -6.70834e-01
       H -4.31324e-01 -9.85986e-01  7.29363e-01
       L  6.58810e+01 -1.17061e+00 -1.17939e+00
       L -2.74814e+00  7.16449e+00 -2.88047e+00
6
# CELL(abcABC):  459.05226   459.05226   459.05226    90.00000    90.00000    90.00000  Step:          25  Bead:       0 x_centroid{angstrom}  cell{atomic_unit}
       C -3.29678e-01 -1.34152e-01  2.06917e-02
       O  8.35953e-01  2.82248e-01 -1.33562e-01
       H -7.54472e-02  7.69677e-01 -6.65365e-01
       H -4.31438e-01 -9.81353e-01  7.21670e-01
       L  6.62412e+01 -1.26625e+00 -1.10327e+00
       L -2.74624e+00  7.18702e+00 -2.45693e+00
6
# CELL(abcABC):  459.05226   459.05226   459.05226    90.00000    90.00000    90.00000  Step:          26  Bead:       0 x_centroid{angstrom}  cell{atomic_unit}
       C -3.29870e-01 -1.34908e-01  1.88698e-02
       O  8.36260e-01  2.82941e-01 -1.31984e-01
       H -7.60744e-02  7.62690e-01 -6.63450e-01
       H -4.33634e-01 -9.76363e-01  7.16075e-01
       L  6.66275e+01 -1.35289e+00 -9.35114e-01
       L -2.69296e+00  7.27226e+00 -1.99300e+00
6
# CELL(abcABC):  459.05226   459.05226   459.05226    90.00000    90.00000    90.00000  Step:          27  Bead:       0 x_centroid{angstrom}  cell{atomic_unit}
       C -3.29830e-01 -1.35738e-01  1.69120e-02
       O  8.36556e-01  2.83188e-01 -1.30201e-01
       H -7.88292e-02  7.63992e-01 -6.65776e-01
       H -4.36324e-01 -9.71714e-01  7.13016e-01
       L  6.70195e+01 -1.44405e+00 -6.91591e-01
       L -2.59789e+00  7.39084e+00 -1.49035e+00
6
# CELL(abcABC):  459.05226   459.05226   459.05226    90.00000    90.00000    90.00000  Step:          28  Bead:       0 x_centroid{angstrom}  cell{atomic_unit}
       C -3.29553e-01 -1.37042e-01  1.49898e-02
       O  8.36712e-01  2.83296e-01 -1.28480e-01
       H -8.30199e-02  7.72853e-01 -6.70875e-01
       H -4.38199e-01 -9.66824e-01  7.13306e-01
       L  6.74145e+01 -1.55026e+00 -4.75704e-01
       L -2.47457e+00  7.63874e+00 -9.63808e-01
6
# CELL(abcABC):  459.05226   459.05226   459.05226    90.00000    90.00000    90.00000  Step:          29  Bead:       0 x_centroid{angstrom}  cell{atomic_unit}
       C -3.28768e-01 -1.38278e-01  1.32472e-02
       O  8.36537e-01  2.83047e-01 -1.26910e-01
       H -8.83319e-02  7.88478e-01 -6.78450e-01
       H -4.39736e-01 -9.63874e-01  7.16317e-01
       L  6.77923e+01 -1.66835e+00 -3.11795e-01
       L -2.31726e+00  7.93373e+00 -3.77818e-01
6
# CELL(abcABC):  459.05226   459.05226   459.05226    90.00000    90.00000    90.00000  Step:          30  Bead:       0 x_centroid{angstrom}  cell{atomic_unit}
       C -3.28008e-01 -1.39665e-01  1.15288e-02
       O  8.36403e-01  2.82692e-01 -1.25357e-01
       H -9.45342e-02  8.07291e-01 -6.88456e-01
       H -4.40776e-01 -9.60690e-01  7.21774e-01
       L  6.81772e+01 -1.73242e+00 -1.64116e-01
       L -2.14076e+00  8.32349e+00  1.51589e-01
6
# CELL(abcABC):  459.05226   459.05226   459.05226    90.00000    90.00000    90.00000  Step:          31  Bead:       0 x_centroid{angstrom}  cell{atomic_unit}
       C -3.27252e-01 -1.41188e-01  9.56711e-03
       O  8.36208e-01  2.82399e-01 -1.23703e-01
       H -1.00084e-01  8.26605e-01 -6.97166e-01
       H -4.41441e-01 -9.57414e-01  7.27292e-01
       L  6.85702e+01 -1.76298e+00 -5.45772e-02
       L -1.99015e+00  8.71887e+00  6.31749e-01
6
# CELL(abcABC):  459.05226   459.05226   459.05226    90.00000    90.00000    90.00000  Step:          32  Bead:       0 x_centroid{angstrom}  cell{atomic_unit}
       C -3.26294e-01 -1.42618e-01  7.64422e-03
       O  8.35912e-01  2.82141e-01 -1.22088e-01
       H -1.06630e-01  8.43450e-01 -7.05275e-01
       H -4.41943e-01 -9.53375e-01  7.32371e-01
       L  6.90139e+01 -1.74411e+00  6.02678e-03
       L -1.82858e+00  9.16603e+00  1.12074e+00
6
# CELL(abcABC):  459.05226   459.05226   459.05226    90.00000    90.00000    90.00000  Step:          33  Bead:       0 x_centroid{angstrom}  cell{atomic_unit}
       C -3.25289e-01 -1.43841e-01  5.61169e-03
       O  8.35720e-01  2.82182e-01 -1.20437e-01
       H -1.13797e-01  8.54906e-01 -7.11591e-01
       H -4.44084e-01 -9.51133e-01  7.36375e-01
       L  6.94807e+01 -1.70603e+00  1.26298e-01
       L -1.57754e+00  9.54960e+00  1.60310e+00
6
# CELL(abcABC):  459.05226   459.05226   459.05226    90.00000    90.00000    90.00000  Step:          34  Bead:       0 x_centroid{angstrom}  cell{atomic_unit}
       C -3.24266e-01 -1.44706e-01  3.49091e-03
       O  8.35594e-01  2.82450e-01 -1.18662e-01
       H -1.21344e-01  8.58327e-01 -7.15643e-01
       H -4.47163e-01 -9.48666e-01  7.37182e-01
       L  6.99862e+01 -1.73574e+00  2.48335e-01
       L -1.28064e+00  9.88548e+00  2.09981e+00
6
# CELL(abcABC):  459.05226   459.05226   459.05226    90.00000    90.00000    90.00000  Step:          35  Bead:       0 x_centroid{angstrom}  cell{atomic_unit}
       C -3.23175e-01 -1.45294e-01  1.44837e-03
       O  8.35392e-01  2.83024e-01 -1.17093e-01
       H -1.27236e-01  8.54441e-01 -7.15972e-01
       H -4.51528e-01 -9.47020e-01  7.36625e-01
       L  7.06052e+01 -1.80122e+00  3.87401e-01
       L -1.04632e+00  1.01880e+01  2.56427e+00
6
# CELL(abcABC):  459.05226   459.05226   459.05226    90.00000    90.00000    90.00000  Step:          36  Bead:       0 x_centroid{angstrom}  cell{atomic_unit}
       C -3.21778e-01 -1.45644e-01 -7.71189e-04
       O  8.34766e-01  2.83985e-01 -1.15745e-01
       H -1.29324e-01  8.43407e-01 -7.10285e-01
       H -4.56621e-01 -9.47181e-01  7.35665e-01
       L  7.12778e+01 -1.82936e+00  5.24630e-01
       L -8.59262e-01  1.04366e+01  3.01256e+00
6
# CELL(abcABC):  459.05226   459.05226   459.05226    90.00000    90.00000    90.00000  Step:          37  Bead:       0 x_centroid{angstrom}  cell{atomic_unit}
       C -3.20125e-01 -1.45641e-01 -3.23930e-03
       O  8.33704e-01  2.85054e-01 -1.14376e-01
       H -1.29445e-01  8.26893e-01 -7.01572e-01
       H -4.59862e-01 -9.47761e-01  7.34325e-01
       L  7.20281e+01 -1.88697e+00  6.72939e-01
       L -6.74651e-01  1.06412e+01  3.43122e+00
6
# CELL(abcABC):  459.05226   459.05226   459.05226    90.00000    90.00000    90.00000  Step:          38  Bead:       0 x_centroid{angstrom}  cell{atomic_unit}
       C -3.17915e-01 -1.45376e-01 -5.80533e-03
       O  8.32013e-01  2.86268e-01 -1.13102e-01
       H -1.25667e-01  8.06643e-01 -6.91239e-01
       H -4.63705e-01 -9.50010e-01  7.34029e-01
       L  7.28720e+01 -1.90103e+00  8.10114e-01
       L -4.46782e-01  1.08000e+01  3.86250e+00
6
# CELL(abcABC):  459.05226   459.05226   459.05226    90.00000    90.00000    90.00000  Step:          39  Bead:       0 x_centroid{angstrom}  cell{atomic_unit}
       C -3.15530e-01 -1.44892e-01 -8.38827e-03
       O  8.30221e-01  2.87315e-01 -1.11890e-01
       H -1.21707e-01  7.86254e-01 -6.80098e-01
       H -4.68258e-01 -9.52117e-01  7.34159e-01
       L  7.37444e+01 -1.87606e+00  9.15790e-01
       L -1.81473e-01  1.09560e+01  4.25941e+00
6
# CELL(abcABC):  459.05226   459.05226   459.05226    90.00000    90.00000    90.00000  Step:          40  Bead:       0 x_centroid{angstrom}  cell{atomic_unit}
       C -3.13291e-01 -1.44509e-01 -1.09869e-02
       O  8.28562e-01  2.88249e-01 -1.10459e-01
       H -1.17822e-01  7.69039e-01 -6.72068e-01
       H -4.73160e-01 -9.54389e-01  7.34134e-01
       L  7.46335e+01 -1.86110e+00  9.93028e-01
       L  1.53567e-01  1.11507e+01  4.63590e+00
6
# CELL(abcABC):  459.05226   459.05226   459.05226    90.00000    90.00000    90.00000  Step:          41  Bead:       0 x_centroid{angstrom}  cell{atomic_unit}
       C -3.11122e-01 -1.44216e-01 -1.33628e-02
       O  8.27310e-01  2.89084e-01 -1.08977e-01
       H -1.18922e-01  7.54308e-01 -6.66145e-01
       H -4.78690e-01 -9.56561e-01  7.32795e-01
       L  7.54625e+01 -1.83829e+00  1.02984e+00
       L  5.27982e-01  1.14149e+01  4.96756e+00
6
# CELL(abcABC):  459.05226   459.05226   459.05226    90.00000    90.00000    90.00000  Step:          42  Bead:       0 x_centroid{angstrom}  cell{atomic_unit}
       C -3.09232e-01 -1.44210e-01 -1.53286e-02
       O  8.26688e-01  2.89709e-01 -1.07548e-01
       H -1.25664e-01  7.46223e-01 -6.65097e-01
       H -4.85291e-01 -9.58680e-01  7.32366e-01
       L  7.63121e+01 -1.80965e+00  1.01191e+00
       L  9.37830e-01  1.17528e+01  5.20819e+00
6
# CELL(abcABC):  459.05226   459.05226   459.05226    90.00000    90.00000    90.00000  Step:          43  Bead:       0 x_centroid{angstrom}  cell{atomic_unit}
       C -3.07507e-01 -1.44810e-01 -1.72311e-02
       O  8.26428e-01  2.90142e-01 -1.05915e-01
       H -1.36640e-01  7.46407e-01 -6.68439e-01
       H -4.91439e-01 -9.58781e-01  7.32371e-01
       L  7.72211e+01 -1.82896e+00  9.95316e-01
       L  1.33329e+00  1.21339e+01  5.39577e+00
6
# CELL(abcABC):  459.05226   459.05226   459.05226    90.00000    90.00000    90.00000  Step:          44  Bead:       0 x_centroid{angstrom}  cell{atomic_unit}
       C -3.05765e-01 -1.45390e-01 -1.90092e-02
       O  8.26140e-01  2.90093e-01 -1.04231e-01
       H -1.48661e-01  7.52929e-01 -6.75191e-01
       H -4.96308e-01 -9.57845e-01  7.33569e-01
       L  7.81101e+01 -1.80734e+00  8.66550e-01
       L  1.71871e+00  1.25328e+01  5.54861e+00
6
# CELL(abcABC):  459.05226   459.05226   459.05226    90.00000    90.00000    90.00000  Step:          45  Bead:       0 x_centroid{angstrom}  cell{atomic_unit}
       C -3.03421e-01 -1.46020e-01 -2.07180e-02
       O  8.25338e-01  2.89727e-01 -1.02491e-01
       H -1.59039e-01  7.65988e-01 -6.85667e-01
       H -5.01801e-01 -9.57894e-01  7.36830e-01
       L  7.89833e+01 -1.71706e+00  7.26574e-01
       L  2.11183e+00  1.29936e+01  5.59287e+00
6
# CELL(abcABC):  459.05226   459.05226   459.05226    90.00000    90.00000    90.00000  Step:          46  Bead:       0 x_centroid{angstrom}  cell{atomic_unit}
       C -3.00634e-01 -1.46353e-01 -2.23789e-02
       O  8.24056e-01  2.89009e-01 -1.00612e-01
       H -1.68291e-01  7.81961e-01 -6.98088e-01
       H -5.06150e-01 -9.58831e-01  7.39301e-01
       L  7.99748e+01 -1.61572e+00  5.94064e-01
       L  2.46149e+00  1.35049e+01  5.58439e+00
6
# CELL(abcABC):  459.05226   459.05226   459.05226    90.00000    90.00000    90.00000  Step:          47  Bead:       0 x_centroid{angstrom}  cell{atomic_unit}
       C -2.97723e-01 -1.46815e-01 -2.41940e-02
       O  8.22700e-01  2.88258e-01 -9.85675e-02
       H -1.77850e-01  7.98777e-01 -7.11779e-01
       H -5.10499e-01 -9.58542e-01  7.42274e-01
       L  8.09962e+01 -1.53440e+00  4.52886e-01
       L  2.81069e+00  1.40130e+01  5.53103e+00
6
# CELL(abcABC):  459.05226   459.05226   459.05226    90.00000    90.00000    90.00000  Step:          48  Bead:       0 x_centroid{angstrom}  cell{atomic_unit}
       C -2.94848e-01 -1.47231e-01 -2.61993e-02
       O  8.21404e-01  2.87413e-01 -9.63380e-02
       H -1.88066e-01  8.15257e-01 -7.25328e-01
       H -5.14719e-01 -9.57010e-01  7.44472e-01
       L  8.20816e+01 -1.39611e+00  3.11070e-01
       L  3.09808e+00  1.45422e+01  5.40801e+00
6
# CELL(abcABC):  459.05226   459.05226   459.05226    90.00000    90.00000    90.00000  Step:          49  Bead:       0 x_centroid{angstrom}  cell{atomic_unit}
       C -2.91978e-01 -1.47325e-01 -2.82831e-02
       O  8.20284e-01  2.86509e-01 -9.39967e-02
       H -2.00530e-01  8.28701e-01 -7.38622e-01
       H -5.19452e-01 -9.55380e-01  7.45600e-01
       L  8.32167e+01 -1.20259e+00  1.60760e-01
       L  3.37228e+00  1.50821e+01  5.24832e+00
6
# CELL(abcABC):  459.05226   459.05226   459.05226    90.00000    90.00000    90.00000  Step:          50  Bead:       0 x_centroid{angstrom}  cell{atomic_unit}
       C -2.88621e-01 -1.46973e-01 -3.03719e-02
       O  8.18927e-01  2.85445e-01 -9.16164e-02
       H -2.16042e-01  8.37288e-01 -7.50655e-01
       H -5.23218e-01 -9.51641e-01  7.44927e-01
       L  8.44924e+01 -1.02281e+00  2.59903e-02
       L  3.61731e+00  1.55724e+01  5.04232e+00
6
# CELL(abcABC):  459.05226   459.05226   459.05226    90.00000    90.00000    90.00000  Step:          51  Bead:       0 x_centroid{angstrom}  cell{atomic_unit}
       C -2.84653e-01 -1.46353e-01 -3.25212e-02
       O  8.17179e-01  2.84475e-01 -8.91764e-02
       H -2.34226e-01  8.41117e-01 -7.60848e-01
       H -5.25473e-01 -9.47796e-01  7.42194e-01
       L  8.59270e+01 -8.76441e-01 -9.84419e-02
       L  3.83755e+00  1.60523e+01  4.80822e+00
6
# CELL(abcABC):  459.05226   459.05226   459.05226    90.00000    90.00000    90.00000  Step:          52  Bead:       0 x_centroid{angstrom}  cell{atomic_unit}
       C -2.80338e-01 -1.45397e-01 -3.45107e-02
       O  8.15113e-01  2.83495e-01 -8.69879e-02
       H -2.52766e-01  8.41192e-01 -7.68085e-01
       H -5.26507e-01 -9.44050e-01  7.38604e-01
       L  8.74534e+01 -7.38430e-01 -2.40915e-01
       L  4.04297e+00  1.65513e+01  4.57547e+00
6
# CELL(abcABC):  459.05226   459.05226   459.05226    90.00000    90.00000    90.00000  Step:          53  Bead:       0 x_centroid{angstrom}  cell{atomic_unit}
       C -2.75280e-01 -1.43860e-01 -3.68492e-02
       O  8.12594e-01  2.82306e-01 -8.46718e-02
       H -2.73332e-01  8.38089e-01 -7.72703e-01
       H -5.27221e-01 -9.40717e-01  7.34557e-01
       L  8.91095e+01 -6.58785e-01 -3.69278e-01
       L  4.21925e+00  1.70559e+01  4.27252e+00
6
# CELL(abcABC):  459.05226   459.05226   459.05226    90.00000    90.00000    90.00000  Step:          54  Bead:       0 x_centroid{angstrom}  cell{atomic_unit}
       C -2.69770e-01 -1.41612e-01 -3.95136e-02
       O  8.09912e-01  2.80771e-01 -8.21858e-02
       H -2.96951e-01  8.31868e-01 -7.75846e-01
       H -5.27713e-01 -9.37242e-01  7.30298e-01
       L  9.08770e+01 -5.72446e-01 -5.32491e-01
       L  4.35849e+00  1.75792e+01  3.86923e+00
6
# CELL(abcABC):  459.05226   459.05226   459.05226    90.00000    90.00000    90.00000  Step:          55  Bead:       0 x_centroid{angstrom}  cell{atomic_unit}
       C -2.63808e-01 -1.38889e-01 -4.26566e-02
       O  8.07081e-01  2.79052e-01 -7.95730e-02
       H -3.22594e-01  8.24514e-01 -7.77007e-01
       H -5.29252e-01 -9.35384e-01  7.27774e-01
       L  9.27051e+01 -5.03491e-01 -7.24088e-01
       L  4.48789e+00  1.81135e+01  3.44077e+00
6
# CELL(abcABC):  459.05226   459.05226   459.05226    90.00000    90.00000    90.00000  Step:          56  Bead:       0 x_centroid{angstrom}  cell{atomic_unit}
       C -2.57742e-01 -1.35430e-01 -4.61524e-02
       O  8.04469e-01  2.76902e-01 -7.70017e-02
       H -3.51883e-01  8.14981e-01 -7.76564e-01
       H -5.31894e-01 -9.33273e-01  7.28527e-01
       L  9.46397e+01 -4.69369e-01 -8.66612e-01
       L  4.57779e+00  1.86959e+01  2.93164e+00
6
# CELL(abcABC):  459.05226   459.05226   459.05226    90.00000    90.00000    90.00000  Step:          57  Bead:       0 x_centroid{angstrom}  cell{atomic_unit}
       C -2.51395e-01 -1.31343e-01 -5.01415e-02
       O  8.02022e-01  2.74387e-01 -7.43345e-02
       H -3.86077e-01  8.03335e-01 -7.74105e-01
       H -5.35618e-01 -9.30734e-01  7.31622e-01
       L  9.67034e+01 -4.86176e-01 -9.92380e-01
       L  4.58970e+00  1.93176e+01  2.40018e+00
6
# CELL(abcABC):  459.05226   459.05226   459.05226    90.00000    90.00000    90.00000  Step:          58  Bead:       0 x_centroid{angstrom}  cell{atomic_unit}
       C -2.45355e-01 -1.26357e-01 -5.46644e-02
       O  8.00110e-01  2.71251e-01 -7.14406e-02
       H -4.25355e-01  7.91334e-01 -7.69390e-01
       H -5.39085e-01 -9.28733e-01  7.35230e-01
       L  9.88333e+01 -5.38156e-01 -1.12638e+00
       L  4.53120e+00  2.00288e+01  1.86841e+00
6
# CELL(abcABC):  459.05226   459.05226   459.05226    90.00000    90.00000    90.00000  Step:          59  Bead:       0 x_centroid{angstrom}  cell{atomic_unit}
       C -2.39835e-01 -1.20758e-01 -5.98169e-02
       O  7.99113e-01  2.67910e-01 -6.81909e-02
       H -4.72546e-01  7.75309e-01 -7.63096e-01
       H -5.43039e-01 -9.26806e-01  7.39112e-01
       L  1.01059e+02 -5.62283e-01 -1.25400e+00
       L  4.50582e+00  2.08113e+01  1.32919e+00
6
# CELL(abcABC):  459.05226   459.05226   459.05226    90.00000    90.00000    90.00000  Step:          60  Bead:       0 x_centroid{angstrom}  cell{atomic_unit}
       C -2.34856e-01 -1.14458e-01 -6.56238e-02
       O  7.99027e-01  2.64234e-01 -6.45618e-02
       H -5.27797e-01  7.54979e-01 -7.56245e-01
       H -5.46978e-01 -9.23649e-01  7.44187e-01
       L  1.03376e+02 -6.20675e-01 -1.37556e+00
       L  4.43604e+00  2.17096e+01  8.34468e-01
6
# CELL(abcABC):  459.05226   459.05226   459.05226    90.00000    90.00000    90.00000  Step:          61  Bead:       0 x_centroid{angstrom}  cell{atomic_unit}
       C -2.30804e-01 -1.07432e-01 -7.18388e-02
       O  8.00244e-01  2.60156e-01 -6.07067e-02
       H -5.92612e-01  7.30771e-01 -7.47874e-01
       H -5.51020e-01 -9.18917e-01  7.49019e-01
       L  1.05769e+02 -6.49487e-01 -1.50294e+00
       L  4.33623e+00  2.26275e+01  3.38509e-01
6
# CELL(abcABC):  459.05226   459.05226   459.05226    90.00000    90.00000    90.00000  Step:          62  Bead:       0 x_centroid{angstrom}  cell{atomic_unit}
       C -2.27899e-01 -9.98668e-02 -7.82796e-02
       O  8.02902e-01  2.55959e-01 -5.66851e-02
       H -6.65773e-01  7.00857e-01 -7.37705e-01
       H -5.55864e-01 -9.13122e-01  7.52081e-01
       L  1.08166e+02 -6.39465e-01 -1.61262e+00
       L  4.16922e+00  2.36871e+01 -1.36890e-01
6
# CELL(abcABC):  459.05226   459.05226   459.05226    90.00000    90.00000    90.00000  Step:          63  Bead:       0 x_centroid{angstrom}  cell{atomic_unit}
       C -2.26059e-01 -9.20365e-02 -8.49129e-02
       O  8.06981e-01  2.51812e-01 -5.24316e-02
       H -7.46549e-01  6.65439e-01 -7.26951e-01
       H -5.62980e-01 -9.05822e-01  7.53195e-01
       L  1.10605e+02 -5.96273e-01 -1.72504e+00
       L  3.95780e+00  2.48197e+01 -6.51251e-01
6
# CELL(abcABC):  459.05226   459.05226   459.05226    90.00000    90.00000    90.00000  Step:          64  Bead:       0 x_centroid{angstrom}  cell{atomic_unit}
       C -2.25941e-01 -8.39068e-02 -9.16895e-02
       O  8.12776e-01  2.47665e-01 -4.78440e-02
       H -8.32366e-01  6.25529e-01 -7.14914e-01
       H -5.71731e-01 -8.97657e-01  7.49471e-01
       L  1.13027e+02 -5.39206e-01 -1.89404e+00
       L  3.70967e+00  2.60534e+01 -1.18880e+00
6
# CELL(abcABC):  459.05226   459.05226   459.05226    90.00000    90.00000    90.00000  Step:          65  Bead:       0 x_centroid{angstrom}  cell{atomic_unit}
       C -2.27444e-01 -7.59735e-02 -9.82319e-02
       O  8.20115e-01  2.43793e-01 -4.32308e-02
       H -9.21279e-01  5.80100e-01 -7.00141e-01
       H -5.82598e-01 -8.86046e-01  7.39819e-01
       L  1.15455e+02 -4.67742e-01 -2.08458e+00
       L  3.43799e+00  2.73498e+01 -1.70933e+00
6
# CELL(abcABC):  459.05226   459.05226   459.05226    90.00000    90.00000    90.00000  Step:          66  Bead:       0 x_centroid{angstrom}  cell{atomic_unit}
       C -2.30762e-01 -6.86279e-02 -1.04208e-01