6
# CELL(abcABC):  459.05226   459.05226   459.05226    90.00000    90.00000    90.00000  Step:           0  Bead:       0 x_centroid{angstrom}  cell{atomic_unit}
       C -3.39887e-01 -1.13437e-01  8.06659e-02
       O  8.43483e-01  2.62672e-01 -1.81512e-01
       H -7.35799e-02  8.16467e-01 -6.61432e-01
       H -4.30016e-01 -9.65701e-01  7.62278e-01
       L  6.13458e+01  0.00000e+00  0.00000e+00
       L  0.00000e+00  8.59064e+00  0.00000e+00
6
# CELL(abcABC):  459.05226   459.05226   459.05226    90.00000    90.00000    90.00000  Step:           1  Bead:       0 x_centroid{angstrom}  cell{atomic_unit}
       C -3.37444e-01 -1.18261e-01  8.25900e-02
       O  8.43383e-01  2.65053e-01 -1.82904e-01
       H -8.32746e-02  8.21838e-01 -6.55959e-01
       H -4.47766e-01 -9.51573e-01  7.56226e-01
       L  6.10717e+01  2.83276e-01  6.09322e-03
       L  1.43880e-01  8.65184e+00 -4.70648e-01
6
# CELL(abcABC):  459.05226   459.05226   459.05226    90.00000    90.00000    90.00000  Step:           2  Bead:       0 x_centroid{angstrom}  cell{atomic_unit}
       C -3.35054e-01 -1.22961e-01  8.44755e-02
       O  8.42789e-01  2.67418e-01 -1.84281e-01
       H -8.66195e-02  8.27506e-01 -6.51529e-01
       H -4.63449e-01 -9.38998e-01  7.51441e-01
       L  6.08813e+01  6.28373e-01 -4.10125e-03
       L  2.83803e-01  8.71480e+00 -9.27555e-01
6
# CELL(abcABC):  459.05226   459.05226   459.05226    90.00000    90.00000    90.00000  Step:           3  Bead:       0 x_centroid{angstrom}  cell{atomic_unit}
       C -3.32564e-01 -1.27114e-01  8.59131e-02
       O  8.41416e-01  2.69580e-01 -1.85603e-01
       H -8.16719e-02  8.34268e-01 -6.47223e-01
       H -4.76295e-01 -9.30852e-01  7.51199e-01
       L  6.07946e+01  9.78077e-01  1.91491e-02
       L  4.19761e-01  8.83893e+00 -1.35274e+00
6
# CELL(abcABC):  459.05226   459.05226   459.05226    90.00000    90.00000    90.00000  Step:           4  Bead:       0 x_centroid{angstrom}  cell{atomic_unit}
       C -3.30007e-01 -1.30956e-01  8.70004e-02
       O  8.39458e-01  2.71742e-01 -1.86812e-01
       H -7.06093e-02  8.40582e-01 -6.43906e-01
       H -4.86787e-01 -9.26006e-01  7.54326e-01
       L  6.07303e+01  1.34276e+00  7.05756e-02
       L  5.53807e-01  9.01533e+00 -1.79051e+00
6
# CELL(abcABC):  459.05226   459.05226   459.05226    90.00000    90.00000    90.00000  Step:           5  Bead:       0 x_centroid{angstrom}  cell{atomic_unit}
       C -3.27713e-01 -1.34758e-01  8.75281e-02
       O  8.37626e-01  2.74150e-01 -1.87913e-01
       H -5.98545e-02  8.44488e-01 -6.39762e-01
       H -4.95845e-01 -9.23065e-01  7.61571e-01
       L  6.06708e+01  1.63890e+00  1.25281e-01
       L  6.95807e-01  9.17034e+00 -2.20075e+00
6
# CELL(abcABC):  459.05226   459.05226   459.05226    90.00000    90.00000    90.00000  Step:           6  Bead:       0 x_centroid{angstrom}  cell{atomic_unit}
       C -3.25913e-01 -1.38267e-01  8.81683e-02
       O  8.36471e-01  2.76721e-01 -1.89238e-01
       H -5.31666e-02  8.46424e-01 -6.33770e-01
       H -5.05667e-01 -9.24190e-01  7.69142e-01
       L  6.05693e+01  1.83127e+00  1.55909e-01
       L  8.25058e-01  9.30615e+00 -2.53061e+00
6
# CELL(abcABC):  459.05226   459.05226   459.05226    90.00000    90.00000    90.00000  Step:           7  Bead:       0 x_centroid{angstrom}  cell{atomic_unit}
       C -3.24948e-01 -1.41271e-01  8.86493e-02
       O  8.36462e-01  2.79270e-01 -1.90408e-01
       H -5.39751e-02  8.43945e-01 -6.27318e-01
       H -5.16137e-01 -9.26540e-01  7.75668e-01
       L  6.03665e+01  2.01709e+00  1.72776e-01
       L  9.03698e-01  9.43891e+00 -2.80725e+00
6
# CELL(abcABC):  459.05226   459.05226   459.05226    90.00000    90.00000    90.00000  Step:           8  Bead:       0 x_centroid{angstrom}  cell{atomic_unit}
       C -3.24796e-01 -1.43892e-01  8.91886e-02
       O  8.37484e-01  2.81723e-01 -1.91715e-01
       H -6.18084e-02  8.38825e-01 -6.19005e-01
       H -5.26245e-01 -9.29259e-01  7.81774e-01
       L  6.00980e+01  2.16063e+00  2.56850e-01
       L  9.95476e-01  9.54452e+00 -3.07178e+00
6
# CELL(abcABC):  459.05226   459.05226   459.05226    90.00000    90.00000    90.00000  Step:           9  Bead:       0 x_centroid{angstrom}  cell{atomic_unit}
       C -3.25123e-01 -1.46049e-01  8.98410e-02
       O  8.39005e-01  2.84021e-01 -1.93144e-01
       H -7.27037e-02  8.31641e-01 -6.10074e-01
       H -5.35451e-01 -9.32958e-01  7.87861e-01
       L  5.97823e+01  2.26824e+00  3.24839e-01
       L  1.02918e+00  9.63513e+00 -3.34930e+00
6
# CELL(abcABC):  459.05226   459.05226   459.05226    90.00000    90.00000    90.00000  Step:          10  Bead:       0 x_centroid{angstrom}  cell{atomic_unit}
       C -3.25827e-01 -1.47933e-01  9.08290e-02
       O  8.40552e-01  2.86266e-01 -1.94864e-01
       H -8.24210e-02  8.24391e-01 -6.02999e-01
       H -5.41796e-01 -9.39012e-01  7.96383e-01
       L  5.95225e+01  2.36470e+00  3.85301e-01
       L  1.09301e+00  9.73824e+00 -3.52394e+00
6
# CELL(abcABC):  459.05226   459.05226   459.05226    90.00000    90.00000    90.00000  Step:          11  Bead:       0 x_centroid{angstrom}  cell{atomic_unit}
       C -3.26081e-01 -1.49504e-01  9.17862e-02
       O  8.41185e-01  2.88263e-01 -1.96713e-01
       H -8.55038e-02  8.20527e-01 -5.96417e-01
       H -5.45656e-01 -9.48274e-01  8.07760e-01
       L  5.93293e+01  2.52178e+00  4.53539e-01
       L  1.15962e+00  9.86297e+00 -3.61392e+00
6
# CELL(abcABC):  459.05226   459.05226   459.05226    90.00000    90.00000    90.00000  Step:          12  Bead:       0 x_centroid{angstrom}  cell{atomic_unit}
       C -3.26107e-01 -1.51109e-01  9.26234e-02
       O  8.40941e-01  2.90025e-01 -1.98507e-01
       H -8.20971e-02  8.20768e-01 -5.91878e-01
       H -5.44848e-01 -9.57532e-01  8.21697e-01
       L  5.92105e+01  2.66480e+00  5.29927e-01
       L  1.22774e+00  1.00392e+01 -3.63793e+00
6
# CELL(abcABC):  459.05226   459.05226   459.05226    90.00000    90.00000    90.00000  Step:          13  Bead:       0 x_centroid{angstrom}  cell{atomic_unit}
       C -3.26007e-01 -1.52751e-01  9.33218e-02
       O  8.40089e-01  2.91744e-01 -2.00088e-01
       H -7.41358e-02  8.22556e-01 -5.89202e-01
       H -5.40487e-01 -9.67180e-01  8.35693e-01
       L  5.91361e+01  2.73940e+00  6.68158e-01
       L  1.31930e+00  1.02389e+01 -3.60882e+00
6
# CELL(abcABC):  459.05226   459.05226   459.05226    90.00000    90.00000    90.00000  Step:          14  Bead:       0 x_centroid{angstrom}  cell{atomic_unit}
       C -3.26044e-01 -1.54400e-01  9.37927e-02
       O  8.39178e-01  2.93321e-01 -2.01440e-01
       H -6.46488e-02  8.25697e-01 -5.86381e-01
       H -5.35049e-01 -9.75827e-01  8.48616e-01
       L  5.90146e+01  2.74182e+00  7.61899e-01
       L  1.40437e+00  1.04520e+01 -3.51311e+00
6
# CELL(abcABC):  459.05226   459.05226   459.05226    90.00000    90.00000    90.00000  Step:          15  Bead:       0 x_centroid{angstrom}  cell{atomic_unit}
       C -3.26715e-01 -1.56102e-01  9.46150e-02
       O  8.38875e-01  2.94849e-01 -2.02645e-01
       H -5.90271e-02  8.27377e-01 -5.85366e-01
       H -5.27817e-01 -9.81534e-01  8.56860e-01
       L  5.88864e+01  2.68131e+00  8.28656e-01
       L  1.42214e+00  1.05969e+01 -3.43014e+00
6
# CELL(abcABC):  459.05226   459.05226   459.05226    90.00000    90.00000    90.00000  Step:          16  Bead:       0 x_centroid{angstrom}  cell{atomic_unit}
       C -3.28248e-01 -1.58187e-01  9.55378e-02
       O  8.39659e-01  2.96555e-01 -2.03613e-01
       H -6.24271e-02  8.28257e-01 -5.83952e-01
       H -5.18518e-01 -9.84698e-01  8.59702e-01
       L  5.87198e+01  2.68955e+00  8.91663e-01
       L  1.45226e+00  1.06955e+01 -3.29218e+00
6
# CELL(abcABC):  459.05226   459.05226   459.05226    90.00000    90.00000    90.00000  Step:          17  Bead:       0 x_centroid{angstrom}  cell{atomic_unit}
       C -3.30352e-01 -1.60535e-01  9.71853e-02
       O  8.41193e-01  2.98431e-01 -2.04661e-01
       H -7.30191e-02  8.26647e-01 -5.84396e-01
       H -5.07061e-01 -9.84905e-01  8.57031e-01
       L  5.84648e+01  2.66448e+00  9.85353e-01
       L  1.43441e+00  1.07466e+01 -3.17819e+00
6
# CELL(abcABC):  459.05226   459.05226   459.05226    90.00000    90.00000    90.00000  Step:          18  Bead:       0 x_centroid{angstrom}  cell{atomic_unit}
       C -3.33161e-01 -1.62902e-01  9.88417e-02
       O  8.43173e-01  3.00269e-01 -2.05467e-01
       H -8.30447e-02  8.23275e-01 -5.85347e-01
       H -4.94789e-01 -9.82457e-01  8.50885e-01
       L  5.81331e+01  2.59018e+00  1.11797e+00
       L  1.40531e+00  1.07465e+01 -3.02030e+00
6
# CELL(abcABC):  459.05226   459.05226   459.05226    90.00000    90.00000    90.00000  Step:          19  Bead:       0 x_centroid{angstrom}  cell{atomic_unit}
       C -3.35833e-01 -1.65293e-01  1.00590e-01
       O  8.44433e-01  3.02031e-01 -2.06144e-01
       H -8.73543e-02  8.19932e-01 -5.88214e-01
       H -4.78451e-01 -9.78539e-01  8.43451e-01
       L  5.78220e+01  2.46752e+00  1.28422e+00
       L  1.38232e+00  1.07559e+01 -2.80893e+00
6
# CELL(abcABC):  459.05226   459.05226   459.05226    90.00000    90.00000    90.00000  Step:          20  Bead:       0 x_centroid{angstrom}  cell{atomic_unit}
       C -3.38543e-01 -1.67875e-01  1.02253e-01
       O  8.44954e-01  3.03775e-01 -2.06685e-01
       H -8.25813e-02  8.18906e-01 -5.92693e-01
       H -4.59049e-01 -9.74345e-01  8.36481e-01
       L  5.75727e+01  2.31808e+00  1.48442e+00
       L  1.34935e+00  1.07738e+01 -2.59650e+00
6
# CELL(abcABC):  459.05226   459.05226   459.05226    90.00000    90.00000    90.00000  Step:          21  Bead:       0 x_centroid{angstrom}  cell{atomic_unit}
       C -3.40715e-01 -1.70445e-01  1.03660e-01
       O  8.44487e-01  3.05228e-01 -2.07037e-01
       H -7.12824e-02  8.21803e-01 -5.98184e-01
       H -4.36871e-01 -9.69627e-01  8.30562e-01
       L  5.73245e+01  2.16314e+00  1.66112e+00
       L  1.25507e+00  1.08165e+01 -2.34132e+00
6
# CELL(abcABC):  459.05226   459.05226   459.05226    90.00000    90.00000    90.00000  Step:          22  Bead:       0 x_centroid{angstrom}  cell{atomic_unit}
       C -3.42854e-01 -1.72709e-01  1.05032e-01
       O  8.43621e-01  3.06408e-01 -2.07280e-01
       H -5.63332e-02  8.26424e-01 -6.04492e-01
       H -4.12389e-01 -9.65897e-01  8.24131e-01
       L  5.70617e+01  1.91448e+00  1.86969e+00
       L  1.14064e+00  1.08727e+01 -2.08629e+00
6
# CELL(abcABC):  459.05226   459.05226   459.05226    90.00000    90.00000    90.00000  Step:          23  Bead:       0 x_centroid{angstrom}  cell{atomic_unit}
       C -3.45200e-01 -1.74705e-01  1.06327e-01
       O  8.43094e-01  3.07442e-01 -2.07465e-01
       H -4.39368e-02  8.31132e-01 -6.10746e-01
       H -3.88260e-01 -9.63082e-01  8.17661e-01
       L  5.68073e+01  1.60068e+00  2.02547e+00
       L  1.01431e+00  1.09095e+01 -1.83992e+00
6
# CELL(abcABC):  459.05226   459.05226   459.05226    90.00000    90.00000    90.00000  Step:          24  Bead:       0 x_centroid{angstrom}  cell{atomic_unit}
       C -3.48126e-01 -1.76461e-01  1.07776e-01
       O  8.43388e-01  3.08513e-01 -2.07761e-01
       H -3.70539e-02  8.32247e-01 -6.17374e-01
       H -3.64659e-01 -9.60134e-01  8.11548e-01
       L  5.64403e+01  1.27861e+00  2.15014e+00
       L  8.75605e-01  1.09661e+01 -1.61858e+00
6
# CELL(abcABC):  459.05226   459.05226   459.05226    90.00000    90.00000    90.00000  Step:          25  Bead:       0 x_centroid{angstrom}  cell{atomic_unit}
       C -3.51656e-01 -1.77820e-01  1.09133e-01
       O  8.44645e-01  3.09454e-01 -2.07961e-01
       H -3.65252e-02  8.31342e-01 -6.24811e-01
       H -3.42753e-01 -9.57836e-01  8.05803e-01
       L  5.59611e+01  1.01157e+00  2.23433e+00
       L  7.65467e-01  1.09862e+01 -1.35938e+00
6
# CELL(abcABC):  459.05226   459.05226   459.05226    90.00000    90.00000    90.00000  Step:          26  Bead:       0 x_centroid{angstrom}  cell{atomic_unit}
       C -3.55787e-01 -1.78739e-01  1.10164e-01
       O  8.46801e-01  3.10353e-01 -2.08019e-01
       H -4.19157e-02  8.28942e-01 -6.32511e-01
       H -3.21963e-01 -9.58519e-01  8.01923e-01
       L  5.53772e+01  6.91683e-01  2.26457e+00
       L  6.25480e-01  1.08808e+01 -1.02248e+00
6
# CELL(abcABC):  459.05226   459.05226   459.05226    90.00000    90.00000    90.00000  Step:          27  Bead:       0 x_centroid{angstrom}  cell{atomic_unit}
       C -3.60440e-01 -1.79652e-01  1.11089e-01
       O  8.49447e-01  3.11492e-01 -2.08129e-01
       H -4.94958e-02  8.24859e-01 -6.40409e-01
       H -3.00513e-01 -9.61392e-01  8.00346e-01
       L  5.46985e+01  3.43426e-01  2.28047e+00
       L  5.04178e-01  1.07711e+01 -6.77396e-01
6
# CELL(abcABC):  459.05226   459.05226   459.05226    90.00000    90.00000    90.00000  Step:          28  Bead:       0 x_centroid{angstrom}  cell{atomic_unit}
       C -3.65118e-01 -1.80228e-01  1.11740e-01
       O  8.52093e-01  3.12612e-01 -2.08318e-01
       H -5.63303e-02  8.21350e-01 -6.47139e-01
       H -2.79492e-01 -9.68579e-01  8.02118e-01
       L  5.40187e+01  4.84000e-02  2.28192e+00
       L  3.62445e-01  1.06683e+01 -3.07665e-01
6
# CELL(abcABC):  459.05226   459.05226   459.05226    90.00000    90.00000    90.00000  Step:          29  Bead:       0 x_centroid{angstrom}  cell{atomic_unit}
       C -3.69738e-01 -1.80224e-01  1.12269e-01
       O  8.54582e-01  3.13446e-01 -2.08571e-01
       H -6.01884e-02  8.17879e-01 -6.53299e-01
       H -2.59603e-01 -9.78228e-01  8.05799e-01
       L  5.32946e+01 -2.27589e-01  2.26472e+00
       L  1.93392e-01  1.06377e+01  7.10585e-02
6
# CELL(abcABC):  459.05226   459.05226   459.05226    90.00000    90.00000    90.00000  Step:          30  Bead:       0 x_centroid{angstrom}  cell{atomic_unit}
       C -3.73966e-01 -1.79972e-01  1.12655e-01
       O  8.56311e-01  3.14183e-01 -2.08768e-01
       H -5.65317e-02  8.15225e-01 -6.60280e-01
       H -2.39890e-01 -9.90112e-01  8.11124e-01
       L  5.26269e+01 -4.93184e-01  2.21663e+00
       L  7.14275e-02  1.06173e+01  4.36368e-01
6
# CELL(abcABC):  459.05226   459.05226   459.05226    90.00000    90.00000    90.00000  Step:          31  Bead:       0 x_centroid{angstrom}  cell{atomic_unit}
       C -3.77378e-01 -1.79546e-01  1.13097e-01
       O  8.57022e-01  3.14758e-01 -2.09127e-01
       H -4.64465e-02  8.13044e-01 -6.66658e-01
       H -2.20201e-01 -1.00197e+00  8.17842e-01
       L  5.20159e+01 -7.89661e-01  2.08261e+00
       L -6.96309e-02  1.06086e+01  7.64984e-01
6
# CELL(abcABC):  459.05226   459.05226   459.05226    90.00000    90.00000    90.00000  Step:          32  Bead:       0 x_centroid{angstrom}  cell{atomic_unit}
       C -3.80091e-01 -1.79279e-01  1.13319e-01
       O  8.56891e-01  3.15489e-01 -2.09412e-01
       H -2.91411e-02  8.10151e-01 -6.71665e-01
       H -2.02723e-01 -1.01370e+00  8.24659e-01
       L  5.14375e+01 -1.05373e+00  1.90585e+00
       L -1.66840e-01  1.05781e+01  1.05550e+00
6
# CELL(abcABC):  459.05226   459.05226   459.05226    90.00000    90.00000    90.00000  Step:          33  Bead:       0 x_centroid{angstrom}  cell{atomic_unit}
       C -3.82514e-01 -1.79342e-01  1.14077e-01
       O  8.56531e-01  3.16530e-01 -2.10041e-01
       H -1.02768e-02  8.05611e-01 -6.75818e-01
       H -1.86595e-01 -1.02479e+00  8.29765e-01
       L  5.07513e+01 -1.32670e+00  1.68731e+00
       L -2.33009e-01  1.05705e+01  1.28223e+00
6
# CELL(abcABC):  459.05226   459.05226   459.05226    90.00000    90.00000    90.00000  Step:          34  Bead:       0 x_centroid{angstrom}  cell{atomic_unit}
       C -3.84947e-01 -1.79877e-01  1.15461e-01
       O  8.56548e-01  3.17772e-01 -2.11077e-01
       H  7.40320e-03  8.00047e-01 -6.78040e-01
       H -1.75099e-01 -1.03244e+00  8.31921e-01
       L  5.00123e+01 -1.55959e+00  1.48480e+00
       L -3.35277e-01  1.05640e+01  1.52358e+00
6
# CELL(abcABC):  459.05226   459.05226   459.05226    90.00000    90.00000    90.00000  Step:          35  Bead:       0 x_centroid{angstrom}  cell{atomic_unit}
       C -3.87339e-01 -1.80852e-01  1.17665e-01
       O  8.56981e-01  3.19289e-01 -2.12323e-01
       H  2.32053e-02  7.93382e-01 -6.81868e-01
       H -1.68775e-01 -1.03808e+00  8.29279e-01
       L  4.92004e+01 -1.82274e+00  1.28739e+00
       L -4.31508e-01  1.05512e+01  1.69340e+00
6
# CELL(abcABC):  459.05226   459.05226   459.05226    90.00000    90.00000    90.00000  Step:          36  Bead:       0 x_centroid{angstrom}  cell{atomic_unit}
       C -3.90643e-01 -1.82456e-01  1.20769e-01
       O  8.58364e-01  3.21084e-01 -2.14004e-01
       H  3.76598e-02  7.86478e-01 -6.85716e-01
       H -1.65249e-01 -1.04040e+00  8.22870e-01
       L  4.82719e+01 -2.09127e+00  1.05280e+00
       L -5.34639e-01  1.05440e+01  1.84865e+00
6
# CELL(abcABC):  459.05226   459.05226   459.05226    90.00000    90.00000    90.00000  Step:          37  Bead:       0 x_centroid{angstrom}  cell{atomic_unit}
       C -3.94174e-01 -1.84658e-01  1.24435e-01
       O  8.60213e-01  3.22983e-01 -2.15986e-01
       H  5.16917e-02  7.82732e-01 -6.89377e-01
       H -1.65908e-01 -1.04040e+00  8.14320e-01
       L  4.72024e+01 -2.37704e+00  8.62837e-01
       L -6.51987e-01  1.05093e+01  2.01051e+00
6
# CELL(abcABC):  459.05226   459.05226   459.05226    90.00000    90.00000    90.00000  Step:          38  Bead:       0 x_centroid{angstrom}  cell{atomic_unit}
       C -3.97877e-01 -1.87092e-01  1.28379e-01
       O  8.62244e-01  3.24748e-01 -2.17891e-01
       H  6.68215e-02  7.81819e-01 -6.95766e-01
       H -1.68413e-01 -1.03837e+00  8.04009e-01
       L  4.59996e+01 -2.57697e+00  6.23883e-01
       L -7.89279e-01  1.04807e+01  2.12918e+00
6
# CELL(abcABC):  459.05226   459.05226   459.05226    90.00000    90.00000    90.00000  Step:          39  Bead:       0 x_centroid{angstrom}  cell{atomic_unit}
       C -4.01803e-01 -1.89767e-01  1.32674e-01
       O  8.64638e-01  3.26366e-01 -2.19981e-01
       H  8.27883e-02  7.85134e-01 -7.04515e-01
       H -1.74815e-01 -1.03536e+00  7.94850e-01
       L  4.46911e+01 -2.81730e+00  3.68445e-01
       L -9.30969e-01  1.04911e+01  2.20819e+00
6
# CELL(abcABC):  459.05226   459.05226   459.05226    90.00000    90.00000    90.00000  Step:          40  Bead:       0 x_centroid{angstrom}  cell{atomic_unit}
       C -4.05693e-01 -1.92472e-01  1.37178e-01
       O  8.66875e-01  3.27634e-01 -2.22230e-01
       H  1.02835e-01  7.93784e-01 -7.15701e-01
       H -1.83160e-01 -1.03177e+00  7.88176e-01
       L  4.33063e+01 -3.02117e+00  1.54545e-01
       L -1.12884e+00  1.04548e+01  2.23637e+00
6
# CELL(abcABC):  459.05226   459.05226   459.05226    90.00000    90.00000    90.00000  Step:          41  Bead:       0 x_centroid{angstrom}  cell{atomic_unit}
       C -4.09320e-01 -1.95108e-01  1.41455e-01
       O  8.68659e-01  3.28497e-01 -2.24392e-01
       H  1.26166e-01  8.08822e-01 -7.28699e-01
       H -1.90664e-01 -1.02898e+00  7.84673e-01
       L  4.18166e+01 -3.24848e+00 -9.15442e-02
       L -1.32683e+00  1.04620e+01  2.21721e+00
6
# CELL(abcABC):  459.05226   459.05226   459.05226    90.00000    90.00000    90.00000  Step:          42  Bead:       0 x_centroid{angstrom}  cell{atomic_unit}
       C -4.13107e-01 -1.98286e-01  1.45547e-01
       O  8.70222e-01  3.29504e-01 -2.26612e-01
       H  1.54077e-01  8.29371e-01 -7.42453e-01
       H -1.97356e-01 -1.02753e+00  7.85046e-01
       L  4.02845e+01 -3.47250e+00 -3.51411e-01
       L -1.47958e+00  1.04675e+01  2.21570e+00
6
# CELL(abcABC):  459.05226   459.05226   459.05226    90.00000    90.00000    90.00000  Step:          43  Bead:       0 x_centroid{angstrom}  cell{atomic_unit}
       C -4.16589e-01 -2.01497e-01  1.49385e-01
       O  8.71245e-01  3.30419e-01 -2.28727e-01
       H  1.86365e-01  8.52157e-01 -7.57403e-01
       H -2.03424e-01 -1.02649e+00  7.87979e-01
       L  3.86665e+01 -3.64960e+00 -6.03895e-01
       L -1.62518e+00  1.04817e+01  2.20120e+00
6
# CELL(abcABC):  459.05226   459.05226   459.05226    90.00000    90.00000    90.00000  Step:          44  Bead:       0 x_centroid{angstrom}  cell{atomic_unit}
       C -4.20280e-01 -2.04729e-01  1.53288e-01
       O  8.72090e-01  3.31349e-01 -2.31059e-01
       H  2.24837e-01  8.76374e-01 -7.73168e-01
       H -2.10302e-01 -1.02692e+00  7.94427e-01
       L  3.69548e+01 -3.76139e+00 -8.85921e-01
       L -1.78359e+00  1.05657e+01  2.13460e+00
6
# CELL(abcABC):  459.05226   459.05226   459.05226    90.00000    90.00000    90.00000  Step:          45  Bead:       0 x_centroid{angstrom}  cell{atomic_unit}
       C -4.24003e-01 -2.07909e-01  1.56977e-01
       O  8.72741e-01  3.32362e-01 -2.33465e-01
       H  2.66958e-01  9.00407e-01 -7.87214e-01
       H -2.17298e-01 -1.02915e+00  8.02876e-01
       L  3.51813e+01 -3.84350e+00 -1.12675e+00
       L -2.02457e+00  1.06414e+01  2.08543e+00
6
# CELL(abcABC):  459.05226   459.05226   459.05226    90.00000    90.00000    90.00000  Step:          46  Bead:       0 x_centroid{angstrom}  cell{atomic_unit}
       C -4.28198e-01 -2.11151e-01  1.60748e-01
       O  8.73506e-01  3.33616e-01 -2.36181e-01
       H  3.12796e-01  9.22513e-01 -7.99041e-01
       H -2.24178e-01 -1.03258e+00  8.13070e-01
       L  3.33251e+01 -3.83873e+00 -1.39882e+00
       L -2.20632e+00  1.07233e+01  2.01429e+00
6
# CELL(abcABC):  459.05226   459.05226   459.05226    90.00000    90.00000    90.00000  Step:          47  Bead:       0 x_centroid{angstrom}  cell{atomic_unit}
       C -4.32432e-01 -2.14139e-01  1.64828e-01
       O  8.74147e-01  3.34987e-01 -2.39203e-01
       H  3.61321e-01  9.42520e-01 -8.09170e-01
       H -2.31306e-01 -1.03880e+00  8.22721e-01
       L  3.14317e+01 -3.80746e+00 -1.68091e+00
       L -2.37672e+00  1.07882e+01  1.95745e+00
6
# CELL(abcABC):  459.05226   459.05226   459.05226    90.00000    90.00000    90.00000  Step:          48  Bead:       0 x_centroid{angstrom}  cell{atomic_unit}
       C -4.37295e-01 -2.17223e-01  1.69140e-01
       O  8.75299e-01  3.36790e-01 -2.42423e-01
       H  4.10404e-01  9.58837e-01 -8.19742e-01
       H -2.39604e-01 -1.04701e+00  8.33190e-01
       L  2.94999e+01 -3.72265e+00 -1.93678e+00
       L -2.50381e+00  1.07611e+01  1.90108e+00
6
# CELL(abcABC):  459.05226   459.05226   459.05226    90.00000    90.00000    90.00000  Step:          49  Bead:       0 x_centroid{angstrom}  cell{atomic_unit}
       C -4.42647e-01 -2.20235e-01  1.73645e-01
       O  8.76906e-01  3.38845e-01 -2.45726e-01
       H  4.58231e-01  9.70973e-01 -8.29327e-01
       H -2.48051e-01 -1.05588e+00  8.41690e-01
       L  2.75557e+01 -3.61868e+00 -2.16809e+00
       L -2.62165e+00  1.06620e+01  1.82318e+00
6
# CELL(abcABC):  459.05226   459.05226   459.05226    90.00000    90.00000    90.00000  Step:          50  Bead:       0 x_centroid{angstrom}  cell{atomic_unit}
       C -4.48189e-01 -2.23387e-01  1.78168e-01
       O  8.78820e-01  3.41221e-01 -2.48970e-01
       H  5.04031e-01  9.80602e-01 -8.38400e-01
       H -2.57023e-01 -1.06563e+00  8.48538e-01
       L  2.54967e+01 -3.47718e+00 -2.40690e+00
       L -2.69183e+00  1.04804e+01  1.74819e+00
6
# CELL(abcABC):  459.05226   459.05226   459.05226    90.00000    90.00000    90.00000  Step:          51  Bead:       0 x_centroid{angstrom}  cell{atomic_unit}
       C -4.54011e-01 -2.26710e-01  1.82765e-01
       O  8.81063e-01  3.43952e-01 -2.52156e-01
       H  5.48104e-01  9.87029e-01 -8.46690e-01
       H -2.66131e-01 -1.07580e+00  8.52814e-01
       L  2.33283e+01 -3.31490e+00 -2.63635e+00
       L -2.73254e+00  1.02775e+01  1.64447e+00
6
# CELL(abcABC):  459.05226   459.05226   459.05226    90.00000    90.00000    90.00000  Step:          52  Bead:       0 x_centroid{angstrom}  cell{atomic_unit}
       C -4.59947e-01 -2.30009e-01  1.87120e-01
       O  8.83559e-01  3.46717e-01 -2.55054e-01
       H  5.89400e-01  9.91919e-01 -8.55499e-01
       H -2.75105e-01 -1.08521e+00  8.55908e-01
       L  2.10948e+01 -3.14448e+00 -2.83977e+00
       L -2.71743e+00  1.00108e+01  1.51245e+00
6
# CELL(abcABC):  459.05226   459.05226   459.05226    90.00000    90.00000    90.00000  Step:          53  Bead:       0 x_centroid{angstrom}  cell{atomic_unit}
       C -4.65900e-01 -2.33047e-01  1.91213e-01
       O  8.86192e-01  3.49134e-01 -2.57587e-01
       H  6.28026e-01  9.97397e-01 -8.65635e-01
       H -2.83393e-01 -1.09282e+00  8.57660e-01
       L  1.88944e+01 -2.99004e+00 -3.04873e+00
       L -2.71246e+00  9.79657e+00  1.36308e+00
6
# CELL(abcABC):  459.05226   459.05226   459.05226    90.00000    90.00000    90.00000  Step:          54  Bead:       0 x_centroid{angstrom}  cell{atomic_unit}
       C -4.71513e-01 -2.36014e-01  1.95311e-01
       O  8.88477e-01  3.51252e-01 -2.59945e-01
       H  6.65180e-01  1.00533e+00 -8.77657e-01
       H -2.88706e-01 -1.09898e+00  8.58485e-01
       L  1.66320e+01 -2.82578e+00 -3.23996e+00
       L -2.68793e+00  9.53527e+00  1.20599e+00
6
# CELL(abcABC):  459.05226   459.05226   459.05226    90.00000    90.00000    90.00000  Step:          55  Bead:       0 x_centroid{angstrom}  cell{atomic_unit}
       C -4.76787e-01 -2.38518e-01  1.99009e-01
       O  8.90615e-01  3.52869e-01 -2.61991e-01
       H  6.99248e-01  1.01484e+00 -8.90308e-01
       H -2.92680e-01 -1.10431e+00  8.59732e-01
       L  1.43304e+01 -2.57952e+00 -3.44669e+00
       L -2.56651e+00  9.29401e+00  1.05691e+00
6
# CELL(abcABC):  459.05226   459.05226   459.05226    90.00000    90.00000    90.00000  Step:          56  Bead:       0 x_centroid{angstrom}  cell{atomic_unit}
       C -4.81746e-01 -2.40484e-01  2.02299e-01
       O  8.92418e-01  3.53970e-01 -2.63544e-01
       H  7.31579e-01  1.02512e+00 -9.03393e-01
       H -2.93343e-01 -1.10867e+00  8.58491e-01
       L  1.19909e+01 -2.31506e+00 -3.59535e+00
       L -2.42937e+00  9.07447e+00  8.16395e-01
6
# CELL(abcABC):  459.05226   459.05226   459.05226    90.00000    90.00000    90.00000  Step:          57  Bead:       0 x_centroid{angstrom}  cell{atomic_unit}
       C -4.85612e-01 -2.41985e-01  2.05163e-01
       O  8.93477e-01  3.54496e-01 -2.64573e-01
       H  7.61117e-01  1.03664e+00 -9.17702e-01
       H -2.92436e-01 -1.11066e+00  8.55224e-01
       L  9.66652e+00 -2.02985e+00 -3.76246e+00
       L -2.29288e+00  8.80576e+00  5.58862e-01
6
# CELL(abcABC):  459.05226   459.05226   459.05226    90.00000    90.00000    90.00000  Step:          58  Bead:       0 x_centroid{angstrom}  cell{atomic_unit}
       C -4.88558e-01 -2.42683e-01  2.07417e-01
       O  8.93768e-01  3.54253e-01 -2.65183e-01
       H  7.89021e-01  1.04862e+00 -9.30869e-01
       H -2.88659e-01 -1.11045e+00  8.51449e-01
       L  7.36357e+00 -1.77377e+00 -3.89909e+00
       L -2.17913e+00  8.51581e+00  2.44140e-01
6
# CELL(abcABC):  459.05226   459.05226   459.05226    90.00000    90.00000    90.00000  Step:          59  Bead:       0 x_centroid{angstrom}  cell{atomic_unit}
       C -4.90504e-01 -2.42535e-01  2.08983e-01
       O  8.93248e-01  3.53448e-01 -2.65379e-01
       H  8.14392e-01  1.05890e+00 -9.42505e-01
       H -2.81401e-01 -1.10973e+00  8.47775e-01
       L  5.09732e+00 -1.51535e+00 -3.98477e+00
       L -2.09271e+00  8.29337e+00 -9.37536e-02
6
# CELL(abcABC):  459.05226   459.05226   459.05226    90.00000    90.00000    90.00000  Step:          60  Bead:       0 x_centroid{angstrom}  cell{atomic_unit}
       C -4.91262e-01 -2.41810e-01  2.10001e-01
       O  8.91788e-01  3.52283e-01 -2.65393e-01
       H  8.38256e-01  1.06662e+00 -9.50357e-01
       H -2.71921e-01 -1.10762e+00  8.43914e-01
       L  2.90553e+00 -1.26243e+00 -3.98453e+00
       L -1.98969e+00  8.06142e+00 -4.36229e-01
6
# CELL(abcABC):  459.05226   459.05226   459.05226    90.00000    90.00000    90.00000  Step:          61  Bead:       0 x_centroid{angstrom}  cell{atomic_unit}
       C -4.90743e-01 -2.40343e-01  2.10235e-01
       O  8.89355e-01  3.50802e-01 -2.65057e-01
       H  8.59307e-01  1.06946e+00 -9.54056e-01
       H -2.59398e-01 -1.10444e+00  8.39628e-01
       L  7.24698e-01 -1.00576e+00 -3.93759e+00
       L -1.89354e+00  7.82927e+00 -7.36566e-01
6
# CELL(abcABC):  459.05226   459.05226   459.05226    90.00000    90.00000    90.00000  Step:          62  Bead:       0 x_centroid{angstrom}  cell{atomic_unit}
       C -4.89309e-01 -2.38096e-01  2.09884e-01
       O  8.86386e-01  3.48845e-01 -2.64576e-01
       H  8.76577e-01  1.06939e+00 -9.53336e-01
       H -2.45488e-01 -1.10011e+00  8.35554e-01
       L -1.48737e+00 -7.19269e-01 -3.84249e+00
       L -1.79511e+00  7.58741e+00 -1.03728e+00
6
# CELL(abcABC):  459.05226   459.05226   459.05226    90.00000    90.00000    90.00000  Step:          63  Bead:       0 x_centroid{angstrom}  cell{atomic_unit}
       C -4.87022e-01 -2.35192e-01  2.09431e-01
       O  8.82973e-01  3.46749e-01 -2.64199e-01
       H  8.88405e-01  1.06276e+00 -9.48875e-01
       H -2.29248e-01 -1.09483e+00  8.30636e-01
       L -3.71937e+00 -4.49694e-01 -3.75179e+00
       L -1.68301e+00  7.34625e+00 -1.34256e+00
6
# CELL(abcABC):  459.05226   459.05226   459.05226    90.00000    90.00000    90.00000  Step:          64  Bead:       0 x_centroid{angstrom}  cell{atomic_unit}
       C -4.84192e-01 -2.31869e-01  2.08987e-01
       O  8.79204e-01  3.44630e-01 -2.63974e-01
       H  8.96438e-01  1.05075e+00 -9.40564e-01
       H -2.10012e-01 -1.08878e+00  8.24107e-01
       L -5.99516e+00 -1.68134e-01 -3.55022e+00
       L -1.52704e+00  7.05731e+00 -1.64253e+00
6
# CELL(abcABC):  459.05226   459.05226   459.05226    90.00000    90.00000    90.00000  Step:          65  Bead:       0 x_centroid{angstrom}  cell{atomic_unit}
       C -4.80945e-01 -2.27579e-01  2.08241e-01
       O  8.75381e-01  3.42148e-01 -2.63505e-01
       H  8.99506e-01  1.03248e+00 -9.30315e-01
       H -1.89939e-01 -1.08219e+00  8.15315e-01
       L -8.30104e+00  8.92300e-02 -3.31771e+00
       L -1.33605e+00  6.72350e+00 -1.94326e+00
6
# CELL(abcABC):  459.05226   459.05226   459.05226    90.00000    90.00000    90.00000  Step:          66  Bead:       0 x_centroid{angstrom}  cell{atomic_unit}
       C -4.77240e-01 -2.22885e-01  2.07064e-01