6
# CELL(abcABC):  459.05226   459.05226   459.05226    90.00000    90.00000    90.00000  Step:           0  Bead:       0 x_centroid{angstrom}  cell{atomic_unit}
       C -3.39887e-01 -1.13437e-01  8.06659e-02
       O  8.43483e-01  2.62672e-01 -1.81512e-01
       H -7.35799e-02  8.16467e-01 -6.61432e-01
       H -4.30016e-01 -9.65701e-01  7.62278e-01
       L  6.13458e+01  0.00000e+00  0.00000e+00
       L  0.00000e+00  8.59064e+00  0.00000e+00
6
# CELL(abcABC):  459.05226   459.05226   459.05226    90.00000    90.00000    90.00000  Step:           1  Bead:       0 x_centroid{angstrom}  cell{atomic_unit}
       C -3.38664e-01 -1.16976e-01  8.19291e-02
       O  8.43212e-01  2.64975e-01 -1.82624e-01
       H -7.87405e-02  8.13866e-01 -6.64966e-01
       H -4.35003e-01 -9.57376e-01  7.68465e-01
       L  6.09990e+01  8.37109e-02  7.50464e-04
       L  1.19655e-01  8.27885e+00 -1.08250e-01
6
# CELL(abcABC):  459.05226   459.05226   459.05226    90.00000    90.00000    90.00000  Step:           2  Bead:       0 x_centroid{angstrom}  cell{atomic_unit}
       C -3.37138e-01 -1.20504e-01  8.31627e-02
       O  8.42575e-01  2.67226e-01 -1.83717e-01
       H -8.16326e-02  8.12823e-01 -6.68618e-01
       H -4.40062e-01 -9.49911e-01  7.74890e-01
       L  6.06446e+01  1.57295e-01 -1.04056e-01
       L  2.61136e-01  8.01549e+00 -2.36287e-01
6
# CELL(abcABC):  459.05226   459.05226   459.05226    90.00000    90.00000    90.00000  Step:           3  Bead:       0 x_centroid{angstrom}  cell{atomic_unit}
       C -3.35693e-01 -1.24047e-01  8.40433e-02
       O  8.41729e-01  2.69440e-01 -1.84779e-01
       H -8.08465e-02  8.12773e-01 -6.71369e-01
       H -4.44530e-01 -9.42696e-01  7.84174e-01
       L  6.03230e+01  2.83613e-01 -2.30263e-01
       L  3.90211e-01  7.72430e+00 -4.06904e-01
6
# CELL(abcABC):  459.05226   459.05226   459.05226    90.00000    90.00000    90.00000  Step:           4  Bead:       0 x_centroid{angstrom}  cell{atomic_unit}
       C -3.33993e-01 -1.27442e-01  8.46937e-02
       O  8.40372e-01  2.71710e-01 -1.85765e-01
       H -7.65212e-02  8.11809e-01 -6.73681e-01
       H -4.47467e-01 -9.37246e-01  7.94540e-01
       L  6.00004e+01  4.32850e-01 -3.51145e-01
       L  4.97264e-01  7.45481e+00 -5.95215e-01
6
# CELL(abcABC):  459.05226   459.05226   459.05226    90.00000    90.00000    90.00000  Step:           5  Bead:       0 x_centroid{angstrom}  cell{atomic_unit}
       C -3.32454e-01 -1.30591e-01  8.52597e-02
       O  8.39055e-01  2.73938e-01 -1.86711e-01
       H -7.14371e-02  8.10004e-01 -6.76986e-01
       H -4.49850e-01 -9.33217e-01  8.06278e-01
       L  5.96367e+01  5.83055e-01 -4.76835e-01
       L  6.12485e-01  7.17927e+00 -7.62679e-01
6
# CELL(abcABC):  459.05226   459.05226   459.05226    90.00000    90.00000    90.00000  Step:           6  Bead:       0 x_centroid{angstrom}  cell{atomic_unit}
       C -3.31356e-01 -1.33471e-01  8.55232e-02
       O  8.38156e-01  2.75997e-01 -1.87496e-01
       H -6.81387e-02  8.07414e-01 -6.78730e-01
       H -4.51792e-01 -9.28932e-01  8.17547e-01
       L  5.92047e+01  7.63355e-01 -6.05349e-01
       L  7.53476e-01  6.87688e+00 -9.95907e-01
6
# CELL(abcABC):  459.05226   459.05226   459.05226    90.00000    90.00000    90.00000  Step:           7  Bead:       0 x_centroid{angstrom}  cell{atomic_unit}
       C -3.30845e-01 -1.36348e-01  8.58723e-02
       O  8.37888e-01  2.78123e-01 -1.88301e-01
       H -6.87375e-02  8.02810e-01 -6.80223e-01
       H -4.52828e-01 -9.23739e-01  8.27850e-01
       L  5.87281e+01  9.47155e-01 -6.94903e-01
       L  8.44886e-01  6.60920e+00 -1.26095e+00
6
# CELL(abcABC):  459.05226   459.05226   459.05226    90.00000    90.00000    90.00000  Step:           8  Bead:       0 x_centroid{angstrom}  cell{atomic_unit}
       C -3.30804e-01 -1.39308e-01  8.63017e-02
       O  8.38166e-01  2.80405e-01 -1.89128e-01
       H -7.18532e-02  7.96424e-01 -6.81911e-01
       H -4.54408e-01 -9.18235e-01  8.37735e-01
       L  5.82192e+01  1.08949e+00 -7.80372e-01
       L  9.61722e-01  6.33050e+00 -1.53091e+00
6
# CELL(abcABC):  459.05226   459.05226   459.05226    90.00000    90.00000    90.00000  Step:           9  Bead:       0 x_centroid{angstrom}  cell{atomic_unit}
       C -3.31231e-01 -1.42263e-01  8.67850e-02
       O  8.38712e-01  2.82782e-01 -1.90032e-01
       H -7.43841e-02  7.90137e-01 -6.83315e-01
       H -4.55217e-01 -9.14390e-01  8.47910e-01
       L  5.77330e+01  1.28780e+00 -8.17462e-01
       L  1.03141e+00  5.99773e+00 -1.81222e+00
6
# CELL(abcABC):  459.05226   459.05226   459.05226    90.00000    90.00000    90.00000  Step:          10  Bead:       0 x_centroid{angstrom}  cell{atomic_unit}
       C -3.31719e-01 -1.45286e-01  8.73938e-02
       O  8.39042e-01  2.85294e-01 -1.91086e-01
       H -7.43736e-02  7.83233e-01 -6.85082e-01
       H -4.54400e-01 -9.11275e-01  8.59282e-01
       L  5.72274e+01  1.49829e+00 -8.14402e-01
       L  1.05723e+00  5.67899e+00 -2.04627e+00
6
# CELL(abcABC):  459.05226   459.05226   459.05226    90.00000    90.00000    90.00000  Step:          11  Bead:       0 x_centroid{angstrom}  cell{atomic_unit}
       C -3.32313e-01 -1.47852e-01  8.82201e-02
       O  8.39272e-01  2.87526e-01 -1.92170e-01
       H -7.24954e-02  7.76765e-01 -6.88916e-01
       H -4.52575e-01 -9.09615e-01  8.70582e-01
       L  5.68027e+01  1.68819e+00 -7.63904e-01
       L  1.01357e+00  5.38938e+00 -2.30166e+00
6
# CELL(abcABC):  459.05226   459.05226   459.05226    90.00000    90.00000    90.00000  Step:          12  Bead:       0 x_centroid{angstrom}  cell{atomic_unit}
       C -3.33303e-01 -1.50392e-01  8.91597e-02
       O  8.39539e-01  2.89623e-01 -1.93200e-01
       H -6.85085e-02  7.71114e-01 -6.93881e-01
       H -4.48743e-01 -9.06902e-01  8.80806e-01
       L  5.63524e+01  1.86221e+00 -7.12145e-01
       L  9.67005e-01  5.08553e+00 -2.55524e+00
6
# CELL(abcABC):  459.05226   459.05226   459.05226    90.00000    90.00000    90.00000  Step:          13  Bead:       0 x_centroid{angstrom}  cell{atomic_unit}
       C -3.34140e-01 -1.53173e-01  8.99979e-02
       O  8.39487e-01  2.91709e-01 -1.94212e-01
       H -6.25572e-02  7.66693e-01 -6.98904e-01
       H -4.43608e-01 -9.02370e-01  8.92030e-01
       L  5.58952e+01  1.96008e+00 -6.09469e-01
       L  8.87395e-01  4.82483e+00 -2.86310e+00
6
# CELL(abcABC):  459.05226   459.05226   459.05226    90.00000    90.00000    90.00000  Step:          14  Bead:       0 x_centroid{angstrom}  cell{atomic_unit}
       C -3.35077e-01 -1.56007e-01  9.09675e-02
       O  8.39450e-01  2.93758e-01 -1.95341e-01
       H -5.68412e-02  7.63302e-01 -7.03882e-01
       H -4.37273e-01 -8.97632e-01  9.03452e-01
       L  5.54371e+01  2.02333e+00 -4.75985e-01
       L  8.17181e-01  4.56278e+00 -3.15827e+00
6
# CELL(abcABC):  459.05226   459.05226   459.05226    90.00000    90.00000    90.00000  Step:          15  Bead:       0 x_centroid{angstrom}  cell{atomic_unit}
       C -3.36041e-01 -1.59016e-01  9.23242e-02
       O  8.39536e-01  2.95894e-01 -1.96698e-01
       H -5.31027e-02  7.60656e-01 -7.08155e-01
       H -4.30588e-01 -8.92899e-01  9.13107e-01
       L  5.49760e+01  2.09194e+00 -2.36456e-01
       L  7.17177e-01  4.24839e+00 -3.40484e+00
6
# CELL(abcABC):  459.05226   459.05226   459.05226    90.00000    90.00000    90.00000  Step:          16  Bead:       0 x_centroid{angstrom}  cell{atomic_unit}
       C -3.37104e-01 -1.61906e-01  9.38302e-02
       O  8.39948e-01  2.98015e-01 -1.98066e-01
       H -5.28888e-02  7.57650e-01 -7.11969e-01
       H -4.24372e-01 -8.88955e-01  9.20714e-01
       L  5.44829e+01  2.15769e+00 -4.45849e-02
       L  6.35755e-01  3.89234e+00 -3.64862e+00
6
# CELL(abcABC):  459.05226   459.05226   459.05226    90.00000    90.00000    90.00000  Step:          17  Bead:       0 x_centroid{angstrom}  cell{atomic_unit}
       C -3.38617e-01 -1.64627e-01  9.55509e-02
       O  8.40756e-01  3.00067e-01 -1.99548e-01
       H -5.44857e-02  7.53492e-01 -7.16342e-01
       H -4.17261e-01 -8.84784e-01  9.28117e-01
       L  5.39809e+01  2.22736e+00  1.29467e-01
       L  5.64290e-01  3.50304e+00 -3.84241e+00
6
# CELL(abcABC):  459.05226   459.05226   459.05226    90.00000    90.00000    90.00000  Step:          18  Bead:       0 x_centroid{angstrom}  cell{atomic_unit}
       C -3.40486e-01 -1.67325e-01  9.73979e-02
       O  8.41649e-01  3.02020e-01 -2.00942e-01
       H -5.55137e-02  7.49963e-01 -7.21518e-01
       H -4.07761e-01 -8.79921e-01  9.33441e-01
       L  5.33934e+01  2.27533e+00  2.64899e-01
       L  4.67312e-01  3.12552e+00 -4.01872e+00
6
# CELL(abcABC):  459.05226   459.05226   459.05226    90.00000    90.00000    90.00000  Step:          19  Bead:       0 x_centroid{angstrom}  cell{atomic_unit}
       C -3.42311e-01 -1.70265e-01  9.96037e-02
       O  8.42253e-01  3.04156e-01 -2.02630e-01
       H -5.29274e-02  7.47026e-01 -7.26582e-01
       H -3.97803e-01 -8.75656e-01  9.39016e-01
       L  5.27612e+01  2.30727e+00  3.66969e-01
       L  3.82977e-01  2.74715e+00 -4.13904e+00
6
# CELL(abcABC):  459.05226   459.05226   459.05226    90.00000    90.00000    90.00000  Step:          20  Bead:       0 x_centroid{angstrom}  cell{atomic_unit}
       C -3.44123e-01 -1.73280e-01  1.02158e-01
       O  8.42680e-01  3.06306e-01 -2.04564e-01
       H -4.82996e-02  7.44953e-01 -7.31812e-01
       H -3.87197e-01 -8.71606e-01  9.44505e-01
       L  5.21361e+01  2.31475e+00  4.90107e-01
       L  2.59954e-01  2.38816e+00 -4.25074e+00
6
# CELL(abcABC):  459.05226   459.05226   459.05226    90.00000    90.00000    90.00000  Step:          21  Bead:       0 x_centroid{angstrom}  cell{atomic_unit}
       C -3.46177e-01 -1.76389e-01  1.04739e-01
       O  8.42980e-01  3.08572e-01 -2.06605e-01
       H -4.07664e-02  7.43203e-01 -7.36996e-01
       H -3.74658e-01 -8.68590e-01  9.51290e-01
       L  5.15171e+01  2.29812e+00  6.54236e-01
       L  2.16759e-01  2.06882e+00 -4.34975e+00
6
# CELL(abcABC):  459.05226   459.05226   459.05226    90.00000    90.00000    90.00000  Step:          22  Bead:       0 x_centroid{angstrom}  cell{atomic_unit}
       C -3.48065e-01 -1.79481e-01  1.07353e-01
       O  8.43119e-01  3.10782e-01 -2.08602e-01
       H -3.32150e-02  7.42484e-01 -7.42854e-01
       H -3.61558e-01 -8.65953e-01  9.57684e-01
       L  5.08861e+01  2.29612e+00  8.08722e-01
       L  1.77848e-01  1.79140e+00 -4.44882e+00
6
# CELL(abcABC):  459.05226   459.05226   459.05226    90.00000    90.00000    90.00000  Step:          23  Bead:       0 x_centroid{angstrom}  cell{atomic_unit}
       C -3.50065e-01 -1.82425e-01  1.10259e-01
       O  8.43325e-01  3.12742e-01 -2.10743e-01
       H -2.61964e-02  7.41822e-01 -7.50008e-01
       H -3.47561e-01 -8.61142e-01  9.64142e-01
       L  5.01523e+01  2.24845e+00  9.55064e-01
       L  1.11237e-01  1.48041e+00 -4.50347e+00
6
# CELL(abcABC):  459.05226   459.05226   459.05226    90.00000    90.00000    90.00000  Step:          24  Bead:       0 x_centroid{angstrom}  cell{atomic_unit}
       C -3.52489e-01 -1.85376e-01  1.13112e-01
       O  8.43827e-01  3.14737e-01 -2.12803e-01
       H -1.88721e-02  7.41140e-01 -7.56538e-01
       H -3.33523e-01 -8.56767e-01  9.69328e-01
       L  4.93723e+01  2.22658e+00  1.11827e+00
       L  4.46820e-02  1.17251e+00 -4.57033e+00
6
# CELL(abcABC):  459.05226   459.05226   459.05226    90.00000    90.00000    90.00000  Step:          25  Bead:       0 x_centroid{angstrom}  cell{atomic_unit}
       C -3.55263e-01 -1.88239e-01  1.16102e-01
       O  8.44591e-01  3.16735e-01 -2.14882e-01
       H -1.07187e-02  7.39998e-01 -7.63315e-01
       H -3.20259e-01 -8.53043e-01  9.73434e-01
       L  4.85370e+01  2.17531e+00  1.20604e+00
       L -3.53709e-03  8.94038e-01 -4.58774e+00
6
# CELL(abcABC):  459.05226   459.05226   459.05226    90.00000    90.00000    90.00000  Step:          26  Bead:       0 x_centroid{angstrom}  cell{atomic_unit}
       C -3.58412e-01 -1.91123e-01  1.18946e-01
       O  8.45705e-01  3.18792e-01 -2.16768e-01
       H -3.16607e-03  7.39136e-01 -7.71111e-01
       H -3.07412e-01 -8.50250e-01  9.77240e-01
       L  4.75781e+01  2.05263e+00  1.28027e+00
       L -7.12194e-02  6.10948e-01 -4.59766e+00
6
# CELL(abcABC):  459.05226   459.05226   459.05226    90.00000    90.00000    90.00000  Step:          27  Bead:       0 x_centroid{angstrom}  cell{atomic_unit}
       C -3.61687e-01 -1.93977e-01  1.22060e-01
       O  8.46877e-01  3.20786e-01 -2.18873e-01
       H  5.19607e-03  7.38684e-01 -7.78403e-01
       H -2.94763e-01 -8.47234e-01  9.80742e-01
       L  4.65338e+01  1.92366e+00  1.40466e+00
       L -1.33268e-01  3.52202e-01 -4.56896e+00
6
# CELL(abcABC):  459.05226   459.05226   459.05226    90.00000    90.00000    90.00000  Step:          28  Bead:       0 x_centroid{angstrom}  cell{atomic_unit}
       C -3.65197e-01 -1.96888e-01  1.25038e-01
       O  8.48202e-01  3.22819e-01 -2.20959e-01
       H  1.60636e-02  7.38761e-01 -7.85604e-01
       H -2.84211e-01 -8.44705e-01  9.85474e-01
       L  4.54713e+01  1.82498e+00  1.51721e+00
       L -2.10586e-01  9.91305e-02 -4.50133e+00
6
# CELL(abcABC):  459.05226   459.05226   459.05226    90.00000    90.00000    90.00000  Step:          29  Bead:       0 x_centroid{angstrom}  cell{atomic_unit}
       C -3.68684e-01 -1.99801e-01  1.28028e-01
       O  8.49410e-01  3.24797e-01 -2.23009e-01
       H  2.92172e-02  7.39201e-01 -7.92726e-01
       H -2.74332e-01 -8.41661e-01  9.89428e-01
       L  4.43405e+01  1.73009e+00  1.60021e+00
       L -2.98180e-01 -1.23000e-01 -4.42777e+00
6
# CELL(abcABC):  459.05226   459.05226   459.05226    90.00000    90.00000    90.00000  Step:          30  Bead:       0 x_centroid{angstrom}  cell{atomic_unit}
       C -3.72608e-01 -2.02625e-01  1.31041e-01
       O  8.50620e-01  3.26684e-01 -2.25211e-01
       H  4.59253e-02  7.41088e-01 -8.00236e-01
       H -2.62783e-01 -8.39659e-01  9.95883e-01
       L  4.31067e+01  1.60107e+00  1.65012e+00
       L -3.50203e-01 -3.20650e-01 -4.29804e+00
6
# CELL(abcABC):  459.05226   459.05226   459.05226    90.00000    90.00000    90.00000  Step:          31  Bead:       0 x_centroid{angstrom}  cell{atomic_unit}
       C -3.76499e-01 -2.05843e-01  1.34062e-01
       O  8.51598e-01  3.28864e-01 -2.27562e-01
       H  6.55127e-02  7.43105e-01 -8.06606e-01
       H -2.50817e-01 -8.37786e-01  1.00349e+00
       L  4.18153e+01  1.46222e+00  1.67903e+00
       L -3.66193e-01 -4.83600e-01 -4.15531e+00
6
# CELL(abcABC):  459.05226   459.05226   459.05226    90.00000    90.00000    90.00000  Step:          32  Bead:       0 x_centroid{angstrom}  cell{atomic_unit}
       C -3.80471e-01 -2.09208e-01  1.37237e-01
       O  8.52491e-01  3.31207e-01 -2.30223e-01
       H  8.79358e-02  7.44319e-01 -8.11688e-01
       H -2.39328e-01 -8.35893e-01  1.01286e+00
       L  4.04418e+01  1.28013e+00  1.76584e+00
       L -3.75860e-01 -6.47339e-01 -4.02162e+00
6
# CELL(abcABC):  459.05226   459.05226   459.05226    90.00000    90.00000    90.00000  Step:          33  Bead:       0 x_centroid{angstrom}  cell{atomic_unit}
       C -3.84450e-01 -2.12815e-01  1.40656e-01
       O  8.53162e-01  3.33580e-01 -2.33066e-01
       H  1.14925e-01  7.46918e-01 -8.17073e-01
       H -2.28796e-01 -8.33073e-01  1.02251e+00
       L  3.90189e+01  1.16773e+00  1.83667e+00
       L -3.63354e-01 -7.36397e-01 -3.84693e+00
6
# CELL(abcABC):  459.05226   459.05226   459.05226    90.00000    90.00000    90.00000  Step:          34  Bead:       0 x_centroid{angstrom}  cell{atomic_unit}
       C -3.88857e-01 -2.16802e-01  1.44379e-01
       O  8.54000e-01  3.36080e-01 -2.36158e-01
       H  1.45195e-01  7.51482e-01 -8.22946e-01
       H -2.19051e-01 -8.29669e-01  1.03290e+00
       L  3.74839e+01  1.03642e+00  1.98068e+00
       L -3.01733e-01 -8.77088e-01 -3.65981e+00
6
# CELL(abcABC):  459.05226   459.05226   459.05226    90.00000    90.00000    90.00000  Step:          35  Bead:       0 x_centroid{angstrom}  cell{atomic_unit}
       C -3.94115e-01 -2.21062e-01  1.48493e-01
       O  8.55254e-01  3.38778e-01 -2.39555e-01
       H  1.78666e-01  7.57308e-01 -8.29974e-01
       H -2.08875e-01 -8.27446e-01  1.04464e+00
       L  3.58867e+01  9.25949e-01  2.13729e+00
       L -3.34771e-01 -9.69079e-01 -3.47605e+00
6
# CELL(abcABC):  459.05226   459.05226   459.05226    90.00000    90.00000    90.00000  Step:          36  Bead:       0 x_centroid{angstrom}  cell{atomic_unit}
       C -3.99803e-01 -2.25457e-01  1.52944e-01
       O  8.56668e-01  3.41406e-01 -2.43047e-01
       H  2.15555e-01  7.65349e-01 -8.39305e-01
       H -1.99501e-01 -8.24714e-01  1.05617e+00
       L  3.41663e+01  7.63003e-01  2.25353e+00
       L -3.27937e-01 -1.02504e+00 -3.23890e+00
6
# CELL(abcABC):  459.05226   459.05226   459.05226    90.00000    90.00000    90.00000  Step:          37  Bead:       0 x_centroid{angstrom}  cell{atomic_unit}
       C -4.05634e-01 -2.30135e-01  1.57782e-01
       O  8.58145e-01  3.44091e-01 -2.46628e-01
       H  2.54099e-01  7.75755e-01 -8.50340e-01
       H -1.90989e-01 -8.21866e-01  1.06616e+00
       L  3.22655e+01  5.82155e-01  2.38855e+00
       L -3.19124e-01 -1.07370e+00 -2.92071e+00
6
# CELL(abcABC):  459.05226   459.05226   459.05226    90.00000    90.00000    90.00000  Step:          38  Bead:       0 x_centroid{angstrom}  cell{atomic_unit}
       C -4.11737e-01 -2.35232e-01  1.62914e-01
       O  8.59758e-01  3.46951e-01 -2.50369e-01
       H  2.94585e-01  7.88838e-01 -8.62643e-01
       H -1.83239e-01 -8.19457e-01  1.07647e+00
       L  3.02697e+01  3.74565e-01  2.46158e+00
       L -3.52463e-01 -1.13847e+00 -2.58632e+00
6
# CELL(abcABC):  459.05226   459.05226   459.05226    90.00000    90.00000    90.00000  Step:          39  Bead:       0 x_centroid{angstrom}  cell{atomic_unit}
       C -4.17801e-01 -2.40452e-01  1.68315e-01
       O  8.61399e-01  3.49706e-01 -2.54038e-01
       H  3.35754e-01  8.04253e-01 -8.78371e-01
       H -1.77041e-01 -8.16264e-01  1.08589e+00
       L  2.81632e+01  1.50464e-01  2.49950e+00
       L -3.52160e-01 -1.18328e+00 -2.26481e+00
6
# CELL(abcABC):  459.05226   459.05226   459.05226    90.00000    90.00000    90.00000  Step:          40  Bead:       0 x_centroid{angstrom}  cell{atomic_unit}
       C -4.23650e-01 -2.45863e-01  1.73720e-01
       O  8.62822e-01  3.52483e-01 -2.57522e-01
       H  3.78259e-01  8.20782e-01 -8.97092e-01
       H -1.71290e-01 -8.12286e-01  1.09531e+00
       L  2.60111e+01 -2.79404e-02  2.47482e+00
       L -3.27135e-01 -1.21122e+00 -1.90924e+00
6
# CELL(abcABC):  459.05226   459.05226   459.05226    90.00000    90.00000    90.00000  Step:          41  Bead:       0 x_centroid{angstrom}  cell{atomic_unit}
       C -4.29225e-01 -2.51337e-01  1.79112e-01
       O  8.64117e-01  3.55201e-01 -2.60725e-01
       H  4.20043e-01  8.37511e-01 -9.19575e-01
       H -1.65991e-01 -8.06801e-01  1.10421e+00
       L  2.37726e+01 -2.25130e-01  2.40186e+00
       L -2.90871e-01 -1.21619e+00 -1.49675e+00
6
# CELL(abcABC):  459.05226   459.05226   459.05226    90.00000    90.00000    90.00000  Step:          42  Bead:       0 x_centroid{angstrom}  cell{atomic_unit}
       C -4.34306e-01 -2.56711e-01  1.84361e-01
       O  8.65263e-01  3.57851e-01 -2.63512e-01
       H  4.59922e-01  8.53765e-01 -9.45200e-01
       H -1.62315e-01 -8.00992e-01  1.11136e+00
       L  2.14995e+01 -4.08828e-01  2.26328e+00
       L -2.58436e-01 -1.20941e+00 -1.03855e+00
6
# CELL(abcABC):  459.05226   459.05226   459.05226    90.00000    90.00000    90.00000  Step:          43  Bead:       0 x_centroid{angstrom}  cell{atomic_unit}
       C -4.39136e-01 -2.61804e-01  1.89827e-01
       O  8.66265e-01  3.60422e-01 -2.66237e-01
       H  4.99023e-01  8.68981e-01 -9.72063e-01
       H -1.58541e-01 -7.96212e-01  1.11621e+00
       L  1.92296e+01 -5.88735e-01  2.08183e+00
       L -2.09773e-01 -1.25632e+00 -6.11056e-01
6
# CELL(abcABC):  459.05226   459.05226   459.05226    90.00000    90.00000    90.00000  Step:          44  Bead:       0 x_centroid{angstrom}  cell{atomic_unit}
       C -4.43562e-01 -2.66497e-01  1.95121e-01
       O  8.66906e-01  3.62947e-01 -2.68638e-01
       H  5.38798e-01  8.80673e-01 -9.98981e-01
       H -1.54523e-01 -7.91930e-01  1.11804e+00
       L  1.69270e+01 -7.85235e-01  1.85451e+00
       L -1.49680e-01 -1.30665e+00 -1.99414e-01
6
# CELL(abcABC):  459.05226   459.05226   459.05226    90.00000    90.00000    90.00000  Step:          45  Bead:       0 x_centroid{angstrom}  cell{atomic_unit}
       C -4.47811e-01 -2.71022e-01  2.00543e-01
       O  8.67437e-01  3.65600e-01 -2.71037e-01
       H  5.78057e-01  8.89609e-01 -1.02447e+00
       H -1.50343e-01 -7.88891e-01  1.11693e+00
       L  1.46049e+01 -1.01360e+00  1.60097e+00
       L -1.01676e-01 -1.38816e+00  2.06293e-01
6
# CELL(abcABC):  459.05226   459.05226   459.05226    90.00000    90.00000    90.00000  Step:          46  Bead:       0 x_centroid{angstrom}  cell{atomic_unit}
       C -4.51466e-01 -2.74858e-01  2.05701e-01
       O  8.67485e-01  3.68093e-01 -2.73268e-01
       H  6.17552e-01  8.94595e-01 -1.04792e+00
       H -1.45840e-01 -7.87549e-01  1.11426e+00
       L  1.23337e+01 -1.23854e+00  1.36915e+00
       L -8.48428e-02 -1.51609e+00  5.61164e-01
6
# CELL(abcABC):  459.05226   459.05226   459.05226    90.00000    90.00000    90.00000  Step:          47  Bead:       0 x_centroid{angstrom}  cell{atomic_unit}
       C -4.54575e-01 -2.78428e-01  2.10490e-01
       O  8.67006e-01  3.70669e-01 -2.75228e-01
       H  6.57211e-01  8.96465e-01 -1.07003e+00
       H -1.39596e-01 -7.87523e-01  1.11039e+00
       L  1.00151e+01 -1.44938e+00  1.12992e+00
       L -5.30492e-02 -1.74952e+00  8.29355e-01
6
# CELL(abcABC):  459.05226   459.05226   459.05226    90.00000    90.00000    90.00000  Step:          48  Bead:       0 x_centroid{angstrom}  cell{atomic_unit}
       C -4.57115e-01 -2.81444e-01  2.15001e-01
       O  8.66194e-01  3.73097e-01 -2.77243e-01
       H  6.95312e-01  8.95103e-01 -1.08876e+00
       H -1.33242e-01 -7.88503e-01  1.10733e+00
       L  7.62411e+00 -1.63407e+00  8.97866e-01
       L -5.31615e-02 -2.04828e+00  1.08999e+00
6
# CELL(abcABC):  459.05226   459.05226   459.05226    90.00000    90.00000    90.00000  Step:          49  Bead:       0 x_centroid{angstrom}  cell{atomic_unit}
       C -4.59159e-01 -2.83873e-01  2.18908e-01
       O  8.65019e-01  3.75351e-01 -2.79027e-01
       H  7.31822e-01  8.89149e-01 -1.10412e+00
       H -1.25425e-01 -7.89175e-01  1.10446e+00
       L  5.23653e+00 -1.71032e+00  6.49341e-01
       L -9.74840e-02 -2.33565e+00  1.32640e+00
6
# CELL(abcABC):  459.05226   459.05226   459.05226    90.00000    90.00000    90.00000  Step:          50  Bead:       0 x_centroid{angstrom}  cell{atomic_unit}
       C -4.61000e-01 -2.85841e-01  2.22484e-01
       O  8.63679e-01  3.77512e-01 -2.80863e-01
       H  7.66173e-01  8.80189e-01 -1.11585e+00
       H -1.15267e-01 -7.90859e-01  1.10282e+00
       L  2.88958e+00 -1.77464e+00  3.20342e-01
       L -1.23142e-01 -2.67088e+00  1.50385e+00
6
# CELL(abcABC):  459.05226   459.05226   459.05226    90.00000    90.00000    90.00000  Step:          51  Bead:       0 x_centroid{angstrom}  cell{atomic_unit}
       C -4.62202e-01 -2.87235e-01  2.25207e-01
       O  8.62008e-01  3.79281e-01 -2.82460e-01
       H  7.95974e-01  8.70791e-01 -1.12391e+00
       H -1.02927e-01 -7.92699e-01  1.10393e+00
       L  5.57407e-01 -1.83978e+00 -8.81936e-02
       L -1.59989e-01 -3.01686e+00  1.65698e+00
6
# CELL(abcABC):  459.05226   459.05226   459.05226    90.00000    90.00000    90.00000  Step:          52  Bead:       0 x_centroid{angstrom}  cell{atomic_unit}
       C -4.62725e-01 -2.88248e-01  2.27109e-01
       O  8.59960e-01  3.80717e-01 -2.83757e-01
       H  8.21233e-01  8.60215e-01 -1.12920e+00
       H -8.81348e-02 -7.92599e-01  1.10730e+00
       L -1.85376e+00 -1.98524e+00 -5.16307e-01
       L -1.64606e-01 -3.31523e+00  1.77774e+00
6
# CELL(abcABC):  459.05226   459.05226   459.05226    90.00000    90.00000    90.00000  Step:          53  Bead:       0 x_centroid{angstrom}  cell{atomic_unit}
       C -4.62465e-01 -2.88413e-01  2.27857e-01
       O  8.57453e-01  3.81341e-01 -2.84516e-01
       H  8.43365e-01  8.51075e-01 -1.13078e+00
       H -7.22700e-02 -7.91227e-01  1.11216e+00
       L -4.25666e+00 -2.11289e+00 -8.79399e-01
       L -1.34652e-01 -3.51921e+00  1.87274e+00
6
# CELL(abcABC):  459.05226   459.05226   459.05226    90.00000    90.00000    90.00000  Step:          54  Bead:       0 x_centroid{angstrom}  cell{atomic_unit}
       C -4.61572e-01 -2.88211e-01  2.27908e-01
       O  8.54711e-01  3.81467e-01 -2.84959e-01
       H  8.61256e-01  8.43744e-01 -1.12961e+00
       H -5.59681e-02 -7.88155e-01  1.11757e+00
       L -6.71484e+00 -2.23311e+00 -1.24511e+00
       L -1.05663e-01 -3.67426e+00  1.97788e+00
6
# CELL(abcABC):  459.05226   459.05226   459.05226    90.00000    90.00000    90.00000  Step:          55  Bead:       0 x_centroid{angstrom}  cell{atomic_unit}
       C -4.59886e-01 -2.87282e-01  2.27184e-01
       O  8.51577e-01  3.80902e-01 -2.85054e-01
       H  8.74169e-01  8.36260e-01 -1.12691e+00
       H -3.79029e-02 -7.82607e-01  1.12515e+00
       L -9.14367e+00 -2.40691e+00 -1.65652e+00
       L -1.04432e-01 -3.81439e+00  2.08706e+00
6
# CELL(abcABC):  459.05226   459.05226   459.05226    90.00000    90.00000    90.00000  Step:          56  Bead:       0 x_centroid{angstrom}  cell{atomic_unit}
       C -4.57481e-01 -2.85839e-01  2.25532e-01
       O  8.48164e-01  3.79829e-01 -2.84581e-01
       H  8.81787e-01  8.29255e-01 -1.12208e+00
       H -1.86958e-02 -7.75638e-01  1.13264e+00
       L -1.15767e+01 -2.55079e+00 -2.00106e+00
       L -5.76509e-02 -3.89195e+00  2.16161e+00
6
# CELL(abcABC):  459.05226   459.05226   459.05226    90.00000    90.00000    90.00000  Step:          57  Bead:       0 x_centroid{angstrom}  cell{atomic_unit}
       C -4.54315e-01 -2.84076e-01  2.23651e-01
       O  8.44486e-01  3.78226e-01 -2.83946e-01
       H  8.84716e-01  8.24771e-01 -1.11711e+00
       H  3.15926e-04 -7.66624e-01  1.14014e+00
       L -1.39943e+01 -2.61486e+00 -2.35329e+00
       L  2.35788e-03 -4.00086e+00  2.27951e+00
6
# CELL(abcABC):  459.05226   459.05226   459.05226    90.00000    90.00000    90.00000  Step:          58  Bead:       0 x_centroid{angstrom}  cell{atomic_unit}
       C -4.50534e-01 -2.82163e-01  2.21345e-01
       O  8.40691e-01  3.76315e-01 -2.82838e-01
       H  8.83494e-01  8.20940e-01 -1.11280e+00
       H  1.80172e-02 -7.55160e-01  1.14583e+00
       L -1.64282e+01 -2.63207e+00 -2.62606e+00
       L  3.66206e-02 -4.14841e+00  2.35925e+00
6
# CELL(abcABC):  459.05226   459.05226   459.05226    90.00000    90.00000    90.00000  Step:          59  Bead:       0 x_centroid{angstrom}  cell{atomic_unit}
       C -4.46131e-01 -2.79931e-01  2.18857e-01
       O  8.36959e-01  3.74214e-01 -2.81365e-01
       H  8.76786e-01  8.16117e-01 -1.10924e+00
       H  3.28326e-02 -7.43524e-01  1.14864e+00
       L -1.89149e+01 -2.59663e+00 -2.84054e+00
       L  8.57664e-02 -4.29768e+00  2.38390e+00
6
# CELL(abcABC):  459.05226   459.05226   459.05226    90.00000    90.00000    90.00000  Step:          60  Bead:       0 x_centroid{angstrom}  cell{atomic_unit}
       C -4.41433e-01 -2.77568e-01  2.16223e-01
       O  8.33367e-01  3.72044e-01 -2.79500e-01
       H  8.66758e-01  8.10044e-01 -1.10637e+00
       H  4.52305e-02 -7.31108e-01  1.14760e+00
       L -2.14443e+01 -2.56820e+00 -2.98332e+00
       L  1.35630e-01 -4.42142e+00  2.40984e+00
6
# CELL(abcABC):  459.05226   459.05226   459.05226    90.00000    90.00000    90.00000  Step:          61  Bead:       0 x_centroid{angstrom}  cell{atomic_unit}
       C -4.36011e-01 -2.75197e-01  2.13342e-01
       O  8.29490e-01  3.70018e-01 -2.77112e-01
       H  8.55497e-01  8.01603e-01 -1.10548e+00
       H  5.48896e-02 -7.18678e-01  1.14323e+00
       L -2.40742e+01 -2.56912e+00 -3.13061e+00
       L  1.07596e-01 -4.57550e+00  2.40418e+00
6
# CELL(abcABC):  459.05226   459.05226   459.05226    90.00000    90.00000    90.00000  Step:          62  Bead:       0 x_centroid{angstrom}  cell{atomic_unit}
       C -4.29948e-01 -2.72585e-01  2.10710e-01
       O  8.25524e-01  3.67963e-01 -2.74418e-01
       H  8.40564e-01  7.90200e-01 -1.10769e+00
       H  6.19754e-02 -7.05685e-01  1.13412e+00
       L -2.67209e+01 -2.52288e+00 -3.29889e+00
       L  7.92203e-02 -4.79139e+00  2.39379e+00
6
# CELL(abcABC):  459.05226   459.05226   459.05226    90.00000    90.00000    90.00000  Step:          63  Bead:       0 x_centroid{angstrom}  cell{atomic_unit}
       C -4.23280e-01 -2.69477e-01  2.08458e-01
       O  8.21479e-01  3.65794e-01 -2.71530e-01
       H  8.23136e-01  7.75174e-01 -1.11326e+00
       H  6.56196e-02 -6.93143e-01  1.12076e+00
       L -2.93693e+01 -2.47392e+00 -3.39297e+00
       L  4.02835e-02 -5.06256e+00  2.36255e+00
6
# CELL(abcABC):  459.05226   459.05226   459.05226    90.00000    90.00000    90.00000  Step:          64  Bead:       0 x_centroid{angstrom}  cell{atomic_unit}
       C -4.16283e-01 -2.66396e-01  2.05958e-01
       O  8.17622e-01  3.63933e-01 -2.68214e-01
       H  8.02642e-01  7.56643e-01 -1.12020e+00
       H  6.54520e-02 -6.81635e-01  1.10490e+00
       L -3.20135e+01 -2.36211e+00 -3.42557e+00
       L -6.61549e-02 -5.46409e+00  2.32645e+00
6
# CELL(abcABC):  459.05226   459.05226   459.05226    90.00000    90.00000    90.00000  Step:          65  Bead:       0 x_centroid{angstrom}  cell{atomic_unit}
       C -4.08749e-01 -2.62947e-01  2.03615e-01
       O  8.13688e-01  3.62180e-01 -2.64830e-01
       H  7.80318e-01  7.33885e-01 -1.12847e+00
       H  6.19219e-02 -6.71934e-01  1.08741e+00
       L -3.46279e+01 -2.23079e+00 -3.48503e+00
       L -1.50181e-01 -5.96785e+00  2.29983e+00
6
# CELL(abcABC):  459.05226   459.05226   459.05226    90.00000    90.00000    90.00000  Step:          66  Bead:       0 x_centroid{angstrom}  cell{atomic_unit}
       C -4.00427e-01 -2.59003e-01  2.01367e-01