6
# CELL(abcABC):  459.05226   459.05226   459.05226    90.00000    90.00000    90.00000  Step:           0  Bead:       0 x_centroid{angstrom}  cell{atomic_unit}
       C -3.39887e-01 -1.13437e-01  8.06659e-02
       O  8.43483e-01  2.62672e-01 -1.81512e-01
       H -7.35799e-02  8.16467e-01 -6.61432e-01
       H -4.30016e-01 -9.65701e-01  7.62278e-01
       L  6.13458e+01  0.00000e+00  0.00000e+00
       L  0.00000e+00  8.59064e+00  0.00000e+00
6
# CELL(abcABC):  459.05226   459.05226   459.05226    90.00000    90.00000    90.00000  Step:           1  Bead:       0 x_centroid{angstrom}  cell{atomic_unit}
       C -3.39915e-01 -1.15651e-01  8.05659e-02
       O  8.43550e-01  2.65138e-01 -1.81495e-01
       H -7.25900e-02  8.10647e-01 -6.62310e-01
       H -4.31902e-01 -9.72475e-01  7.64246e-01
       L  6.15159e+01 -1.35385e-01 -1.34144e-03
       L  1.51005e-01  8.38800e+00 -3.09688e-01
6
# CELL(abcABC):  459.05226   459.05226   459.05226    90.00000    90.00000    90.00000  Step:           2  Bead:       0 x_centroid{angstrom}  cell{atomic_unit}
       C -3.40237e-01 -1.17824e-01  8.04922e-02
       O  8.43912e-01  2.67563e-01 -1.81450e-01
       H -7.31739e-02  8.05208e-01 -6.64088e-01
       H -4.33418e-01 -9.79459e-01  7.66365e-01
       L  6.16978e+01 -2.22774e-01 -2.73528e-02
       L  3.04324e-01  8.15141e+00 -6.08158e-01
6
# CELL(abcABC):  459.05226   459.05226   459.05226    90.00000    90.00000    90.00000  Step:           3  Bead:       0 x_centroid{angstrom}  cell{atomic_unit}
       C -3.40741e-01 -1.19896e-01  8.05090e-02
       O  8.44449e-01  2.69823e-01 -1.81582e-01
       H -7.35726e-02  8.00943e-01 -6.65906e-01
       H -4.35722e-01 -9.86228e-01  7.70237e-01
       L  6.18464e+01 -2.80105e-01 -3.28701e-02
       L  5.12896e-01  7.95171e+00 -8.92626e-01
6
# CELL(abcABC):  459.05226   459.05226   459.05226    90.00000    90.00000    90.00000  Step:           4  Bead:       0 x_centroid{angstrom}  cell{atomic_unit}
       C -3.41264e-01 -1.21995e-01  8.05941e-02
       O  8.44934e-01  2.71755e-01 -1.81681e-01
       H -7.39687e-02  8.00414e-01 -6.69168e-01
       H -4.37014e-01 -9.91215e-01  7.74174e-01
       L  6.20363e+01 -3.82465e-01 -2.71491e-03
       L  7.00668e-01  7.78214e+00 -1.13908e+00
6
# CELL(abcABC):  459.05226   459.05226   459.05226    90.00000    90.00000    90.00000  Step:           5  Bead:       0 x_centroid{angstrom}  cell{atomic_unit}
       C -3.41656e-01 -1.24110e-01  8.08091e-02
       O  8.45233e-01  2.73441e-01 -1.81803e-01
       H -7.42759e-02  8.02957e-01 -6.72586e-01
       H -4.36965e-01 -9.95163e-01  7.77086e-01
       L  6.21941e+01 -4.94828e-01  4.85374e-03
       L  8.80429e-01  7.62538e+00 -1.37593e+00
6
# CELL(abcABC):  459.05226   459.05226   459.05226    90.00000    90.00000    90.00000  Step:           6  Bead:       0 x_centroid{angstrom}  cell{atomic_unit}
       C -3.42114e-01 -1.26112e-01  8.07735e-02
       O  8.45528e-01  2.74901e-01 -1.81805e-01
       H -7.36861e-02  8.06296e-01 -6.75248e-01
       H -4.36930e-01 -9.97700e-01  7.80320e-01
       L  6.23169e+01 -5.82563e-01  2.81860e-03
       L  1.05582e+00  7.47529e+00 -1.59962e+00
6
# CELL(abcABC):  459.05226   459.05226   459.05226    90.00000    90.00000    90.00000  Step:           7  Bead:       0 x_centroid{angstrom}  cell{atomic_unit}
       C -3.42536e-01 -1.28170e-01  8.06606e-02
       O  8.45817e-01  2.76279e-01 -1.81778e-01
       H -7.42012e-02  8.10026e-01 -6.77073e-01
       H -4.36101e-01 -9.98619e-01  7.83168e-01
       L  6.23744e+01 -7.01660e-01 -6.00996e-03
       L  1.23511e+00  7.31512e+00 -1.77598e+00
6
# CELL(abcABC):  459.05226   459.05226   459.05226    90.00000    90.00000    90.00000  Step:           8  Bead:       0 x_centroid{angstrom}  cell{atomic_unit}
       C -3.43200e-01 -1.30648e-01  8.04736e-02
       O  8.46223e-01  2.77860e-01 -1.81642e-01
       H -7.50124e-02  8.13406e-01 -6.78799e-01
       H -4.33961e-01 -9.97445e-01  7.85047e-01
       L  6.24107e+01 -7.85680e-01 -4.35127e-02
       L  1.44256e+00  7.16706e+00 -1.88113e+00
6
# CELL(abcABC):  459.05226   459.05226   459.05226    90.00000    90.00000    90.00000  Step:           9  Bead:       0 x_centroid{angstrom}  cell{atomic_unit}
       C -3.43889e-01 -1.33106e-01  7.99347e-02
       O  8.46641e-01  2.79274e-01 -1.81116e-01
       H -7.53324e-02  8.16577e-01 -6.80010e-01
       H -4.32204e-01 -9.93616e-01  7.84402e-01
       L  6.24509e+01 -8.61480e-01 -9.37331e-02
       L  1.63610e+00  6.96590e+00 -1.97843e+00
6
# CELL(abcABC):  459.05226   459.05226   459.05226    90.00000    90.00000    90.00000  Step:          10  Bead:       0 x_centroid{angstrom}  cell{atomic_unit}
       C -3.44236e-01 -1.35617e-01  7.96731e-02
       O  8.46837e-01  2.80666e-01 -1.80789e-01
       H -7.48399e-02  8.18314e-01 -6.79324e-01
       H -4.31772e-01 -9.87409e-01  7.81728e-01
       L  6.24784e+01 -9.04936e-01 -1.49152e-01
       L  1.81859e+00  6.78310e+00 -2.06264e+00
6
# CELL(abcABC):  459.05226   459.05226   459.05226    90.00000    90.00000    90.00000  Step:          11  Bead:       0 x_centroid{angstrom}  cell{atomic_unit}
       C -3.44486e-01 -1.38260e-01  7.89677e-02
       O  8.46960e-01  2.82112e-01 -1.80081e-01
       H -7.46953e-02  8.19297e-01 -6.78071e-01
       H -4.30945e-01 -9.79749e-01  7.77665e-01
       L  6.24190e+01 -9.48104e-01 -1.87720e-01
       L  1.97307e+00  6.64936e+00 -2.08481e+00
6
# CELL(abcABC):  459.05226   459.05226   459.05226    90.00000    90.00000    90.00000  Step:          12  Bead:       0 x_centroid{angstrom}  cell{atomic_unit}
       C -3.44420e-01 -1.40860e-01  7.82780e-02
       O  8.46660e-01  2.83653e-01 -1.79370e-01
       H -7.18305e-02  8.19547e-01 -6.77729e-01
       H -4.29856e-01 -9.73398e-01  7.74252e-01
       L  6.23479e+01 -9.86650e-01 -1.78288e-01
       L  2.09487e+00  6.52393e+00 -2.08111e+00
6
# CELL(abcABC):  459.05226   459.05226   459.05226    90.00000    90.00000    90.00000  Step:          13  Bead:       0 x_centroid{angstrom}  cell{atomic_unit}
       C -3.44329e-01 -1.43335e-01  7.71642e-02
       O  8.46187e-01  2.85036e-01 -1.78522e-01
       H -6.83532e-02  8.19945e-01 -6.76374e-01
       H -4.26941e-01 -9.66137e-01  7.72689e-01
       L  6.22555e+01 -1.02667e+00 -1.36126e-01
       L  2.21228e+00  6.36729e+00 -2.07847e+00
6
# CELL(abcABC):  459.05226   459.05226   459.05226    90.00000    90.00000    90.00000  Step:          14  Bead:       0 x_centroid{angstrom}  cell{atomic_unit}
       C -3.44413e-01 -1.45439e-01  7.59495e-02
       O  8.45956e-01  2.86114e-01 -1.77639e-01
       H -6.59671e-02  8.21378e-01 -6.74577e-01
       H -4.24623e-01 -9.59546e-01  7.71318e-01
       L  6.20901e+01 -1.04780e+00 -8.84091e-02
       L  2.33581e+00  6.24834e+00 -2.08141e+00
6
# CELL(abcABC):  459.05226   459.05226   459.05226    90.00000    90.00000    90.00000  Step:          15  Bead:       0 x_centroid{angstrom}  cell{atomic_unit}
       C -3.44404e-01 -1.47387e-01  7.45186e-02
       O  8.45711e-01  2.87101e-01 -1.76558e-01
       H -6.45531e-02  8.22996e-01 -6.73322e-01
       H -4.22207e-01 -9.53580e-01  7.69908e-01
       L  6.18358e+01 -1.08133e+00 -7.41933e-03
       L  2.48656e+00  6.21948e+00 -2.06397e+00
6
# CELL(abcABC):  459.05226   459.05226   459.05226    90.00000    90.00000    90.00000  Step:          16  Bead:       0 x_centroid{angstrom}  cell{atomic_unit}
       C -3.44503e-01 -1.48836e-01  7.32202e-02
       O  8.45647e-01  2.87829e-01 -1.75612e-01
       H -6.41791e-02  8.25322e-01 -6.72720e-01
       H -4.20280e-01 -9.50190e-01  7.69713e-01
       L  6.15331e+01 -1.11996e+00  5.87349e-02
       L  2.61437e+00  6.23375e+00 -2.03450e+00
6
# CELL(abcABC):  459.05226   459.05226   459.05226    90.00000    90.00000    90.00000  Step:          17  Bead:       0 x_centroid{angstrom}  cell{atomic_unit}
       C -3.44627e-01 -1.50050e-01  7.17498e-02
       O  8.45579e-01  2.88611e-01 -1.74759e-01
       H -6.38270e-02  8.25374e-01 -6.71004e-01
       H -4.17934e-01 -9.48226e-01  7.71920e-01
       L  6.11863e+01 -1.09158e+00  1.21359e-01
       L  2.68908e+00  6.27757e+00 -2.01834e+00
6
# CELL(abcABC):  459.05226   459.05226   459.05226    90.00000    90.00000    90.00000  Step:          18  Bead:       0 x_centroid{angstrom}  cell{atomic_unit}
       C -3.44745e-01 -1.50994e-01  7.01003e-02
       O  8.45540e-01  2.89357e-01 -1.73872e-01
       H -6.46390e-02  8.24862e-01 -6.69646e-01
       H -4.14948e-01 -9.48333e-01  7.76090e-01
       L  6.08081e+01 -1.03793e+00  1.97711e-01
       L  2.78564e+00  6.30508e+00 -2.00216e+00
6
# CELL(abcABC):  459.05226   459.05226   459.05226    90.00000    90.00000    90.00000  Step:          19  Bead:       0 x_centroid{angstrom}  cell{atomic_unit}
       C -3.44633e-01 -1.51770e-01  6.83116e-02
       O  8.45467e-01  2.90103e-01 -1.72953e-01
       H -6.63678e-02  8.23483e-01 -6.67130e-01
       H -4.13225e-01 -9.49618e-01  7.80243e-01
       L  6.04097e+01 -9.93944e-01  2.96797e-01
       L  2.90779e+00  6.35490e+00 -1.97947e+00
6
# CELL(abcABC):  459.05226   459.05226   459.05226    90.00000    90.00000    90.00000  Step:          20  Bead:       0 x_centroid{angstrom}  cell{atomic_unit}
       C -3.44826e-01 -1.52458e-01  6.64054e-02
       O  8.45670e-01  2.90765e-01 -1.72073e-01
       H -6.83747e-02  8.22851e-01 -6.64770e-01
       H -4.11976e-01 -9.51374e-01  7.86589e-01
       L  5.99845e+01 -9.06702e-01  3.66203e-01
       L  3.01758e+00  6.42430e+00 -1.98909e+00
6
# CELL(abcABC):  459.05226   459.05226   459.05226    90.00000    90.00000    90.00000  Step:          21  Bead:       0 x_centroid{angstrom}  cell{atomic_unit}
       C -3.45219e-01 -1.52773e-01  6.43993e-02
       O  8.45937e-01  2.91271e-01 -1.71262e-01
       H -6.97962e-02  8.22201e-01 -6.62236e-01
       H -4.09934e-01 -9.55132e-01  7.95048e-01
       L  5.95558e+01 -7.63945e-01  4.25826e-01
       L  3.10372e+00  6.52358e+00 -1.97846e+00
6
# CELL(abcABC):  459.05226   459.05226   459.05226    90.00000    90.00000    90.00000  Step:          22  Bead:       0 x_centroid{angstrom}  cell{atomic_unit}
       C -3.45550e-01 -1.52826e-01  6.24884e-02
       O  8.46007e-01  2.91747e-01 -1.70505e-01
       H -6.93988e-02  8.19738e-01 -6.59388e-01
       H -4.07252e-01 -9.59766e-01  8.02895e-01
       L  5.90813e+01 -5.56525e-01  4.82209e-01
       L  3.14675e+00  6.61259e+00 -1.91620e+00
6
# CELL(abcABC):  459.05226   459.05226   459.05226    90.00000    90.00000    90.00000  Step:          23  Bead:       0 x_centroid{angstrom}  cell{atomic_unit}
       C -3.45668e-01 -1.53016e-01  6.08116e-02
       O  8.45793e-01  2.92314e-01 -1.69857e-01
       H -6.73957e-02  8.16161e-01 -6.56212e-01
       H -4.04197e-01 -9.63047e-01  8.09334e-01
       L  5.86011e+01 -3.55794e-01  5.35442e-01
       L  3.15388e+00  6.65136e+00 -1.83240e+00
6
# CELL(abcABC):  459.05226   459.05226   459.05226    90.00000    90.00000    90.00000  Step:          24  Bead:       0 x_centroid{angstrom}  cell{atomic_unit}
       C -3.45795e-01 -1.53399e-01  5.90643e-02
       O  8.45588e-01  2.93043e-01 -1.69140e-01
       H -6.33803e-02  8.11909e-01 -6.52529e-01
       H -4.03181e-01 -9.65914e-01  8.15035e-01
       L  5.80961e+01 -2.06254e-01  5.29128e-01
       L  3.14610e+00  6.69907e+00 -1.70229e+00
6
# CELL(abcABC):  459.05226   459.05226   459.05226    90.00000    90.00000    90.00000  Step:          25  Bead:       0 x_centroid{angstrom}  cell{atomic_unit}
       C -3.46065e-01 -1.53960e-01  5.70787e-02
       O  8.45500e-01  2.93941e-01 -1.68270e-01
       H -5.91882e-02  8.06885e-01 -6.48235e-01
       H -4.02431e-01 -9.68564e-01  8.20526e-01
       L  5.75831e+01 -6.85829e-03  5.51958e-01
       L  3.07927e+00  6.69505e+00 -1.62729e+00
6
# CELL(abcABC):  459.05226   459.05226   459.05226    90.00000    90.00000    90.00000  Step:          26  Bead:       0 x_centroid{angstrom}  cell{atomic_unit}
       C -3.46933e-01 -1.54758e-01  5.54651e-02
       O  8.45840e-01  2.94894e-01 -1.67444e-01
       H -5.49260e-02  8.00824e-01 -6.45281e-01
       H -4.01407e-01 -9.68203e-01  8.23662e-01
       L  5.70329e+01  1.78047e-01  5.19686e-01
       L  3.00526e+00  6.67054e+00 -1.54990e+00
6
# CELL(abcABC):  459.05226   459.05226   459.05226    90.00000    90.00000    90.00000  Step:          27  Bead:       0 x_centroid{angstrom}  cell{atomic_unit}
       C -3.47731e-01 -1.55907e-01  5.38063e-02
       O  8.46133e-01  2.95996e-01 -1.66281e-01
       H -5.16236e-02  7.94493e-01 -6.44610e-01
       H -3.99495e-01 -9.65748e-01  8.24287e-01
       L  5.64617e+01  3.21807e-01  4.60363e-01
       L  2.91878e+00  6.64131e+00 -1.46329e+00
6
# CELL(abcABC):  459.05226   459.05226   459.05226    90.00000    90.00000    90.00000  Step:          28  Bead:       0 x_centroid{angstrom}  cell{atomic_unit}
       C -3.48772e-01 -1.56936e-01  5.25874e-02
       O  8.46585e-01  2.96814e-01 -1.65246e-01
       H -4.75928e-02  7.89891e-01 -6.46199e-01
       H -3.97940e-01 -9.61892e-01  8.23945e-01
       L  5.59008e+01  4.34549e-01  4.15201e-01
       L  2.82252e+00  6.60586e+00 -1.36791e+00
6
# CELL(abcABC):  459.05226   459.05226   459.05226    90.00000    90.00000    90.00000  Step:          29  Bead:       0 x_centroid{angstrom}  cell{atomic_unit}
       C -3.49887e-01 -1.58003e-01  5.14881e-02
       O  8.47018e-01  2.97382e-01 -1.64100e-01
       H -4.19469e-02  7.88088e-01 -6.49146e-01
       H -3.96736e-01 -9.56450e-01  8.21751e-01
       L  5.53194e+01  5.13114e-01  3.91883e-01
       L  2.60714e+00  6.61500e+00 -1.25525e+00
6
# CELL(abcABC):  459.05226   459.05226   459.05226    90.00000    90.00000    90.00000  Step:          30  Bead:       0 x_centroid{angstrom}  cell{atomic_unit}
       C -3.51216e-01 -1.59260e-01  5.05962e-02
       O  8.47696e-01  2.97989e-01 -1.62955e-01
       H -3.65950e-02  7.88539e-01 -6.53314e-01
       H -3.96552e-01 -9.51644e-01  8.18287e-01
       L  5.46768e+01  6.52549e-01  4.12057e-01
       L  2.39140e+00  6.64741e+00 -1.10489e+00
6
# CELL(abcABC):  459.05226   459.05226   459.05226    90.00000    90.00000    90.00000  Step:          31  Bead:       0 x_centroid{angstrom}  cell{atomic_unit}
       C -3.52551e-01 -1.60712e-01  4.99085e-02
       O  8.48435e-01  2.98660e-01 -1.61802e-01
       H -3.17750e-02  7.91544e-01 -6.58790e-01
       H -3.96691e-01 -9.48073e-01  8.13543e-01
       L  5.39852e+01  7.56339e-01  4.15371e-01
       L  2.16856e+00  6.67229e+00 -9.11447e-01
6
# CELL(abcABC):  459.05226   459.05226   459.05226    90.00000    90.00000    90.00000  Step:          32  Bead:       0 x_centroid{angstrom}  cell{atomic_unit}
       C -3.53768e-01 -1.62011e-01  4.96164e-02
       O  8.49063e-01  2.99106e-01 -1.60771e-01
       H -2.63065e-02  7.96869e-01 -6.66762e-01
       H -3.97077e-01 -9.45062e-01  8.08501e-01
       L  5.31843e+01  8.77375e-01  4.33091e-01
       L  1.97205e+00  6.67521e+00 -7.02888e-01
6
# CELL(abcABC):  459.05226   459.05226   459.05226    90.00000    90.00000    90.00000  Step:          33  Bead:       0 x_centroid{angstrom}  cell{atomic_unit}
       C -3.54942e-01 -1.63314e-01  4.97420e-02
       O  8.49477e-01  2.99565e-01 -1.59957e-01
       H -1.89719e-02  8.01960e-01 -6.76055e-01
       H -3.96434e-01 -9.41943e-01  8.03270e-01
       L  5.23310e+01  9.44391e-01  4.15922e-01
       L  1.79212e+00  6.65460e+00 -4.79807e-01
6
# CELL(abcABC):  459.05226   459.05226   459.05226    90.00000    90.00000    90.00000  Step:          34  Bead:       0 x_centroid{angstrom}  cell{atomic_unit}
       C -3.56086e-01 -1.64961e-01  4.98512e-02
       O  8.49909e-01  3.00329e-01 -1.59066e-01
       H -1.12039e-02  8.06740e-01 -6.86144e-01
       H -3.96832e-01 -9.39214e-01  7.97799e-01
       L  5.14430e+01  9.92403e-01  3.83531e-01
       L  1.57710e+00  6.58387e+00 -2.37413e-01
6
# CELL(abcABC):  459.05226   459.05226   459.05226    90.00000    90.00000    90.00000  Step:          35  Bead:       0 x_centroid{angstrom}  cell{atomic_unit}
       C -3.57614e-01 -1.66487e-01  4.99188e-02
       O  8.50561e-01  3.01027e-01 -1.58225e-01
       H -2.15870e-03  8.10829e-01 -6.95320e-01
       H -3.97435e-01 -9.36151e-01  7.92675e-01
       L  5.05281e+01  9.99517e-01  3.92089e-01
       L  1.40971e+00  6.48674e+00  2.17424e-02
6
# CELL(abcABC):  459.05226   459.05226   459.05226    90.00000    90.00000    90.00000  Step:          36  Bead:       0 x_centroid{angstrom}  cell{atomic_unit}
       C -3.59377e-01 -1.67968e-01  5.03322e-02
       O  8.51336e-01  3.01927e-01 -1.57590e-01
       H  7.88653e-03  8.10942e-01 -7.04245e-01
       H -3.98157e-01 -9.32764e-01  7.86455e-01
       L  4.95709e+01  9.47820e-01  3.79289e-01
       L  1.25809e+00  6.30711e+00  3.01841e-01
6
# CELL(abcABC):  459.05226   459.05226   459.05226    90.00000    90.00000    90.00000  Step:          37  Bead:       0 x_centroid{angstrom}  cell{atomic_unit}
       C -3.61484e-01 -1.69330e-01  5.04994e-02
       O  8.52403e-01  3.03010e-01 -1.56930e-01
       H  1.89327e-02  8.09088e-01 -7.11245e-01
       H -4.00417e-01 -9.31710e-01  7.80810e-01
       L  4.86019e+01  8.89765e-01  3.68157e-01
       L  1.10085e+00  6.07770e+00  6.25575e-01
6
# CELL(abcABC):  459.05226   459.05226   459.05226    90.00000    90.00000    90.00000  Step:          38  Bead:       0 x_centroid{angstrom}  cell{atomic_unit}
       C -3.63636e-01 -1.70517e-01  5.07019e-02
       O  8.53477e-01  3.04189e-01 -1.56475e-01
       H  3.20442e-02  8.05833e-01 -7.17539e-01
       H -4.04258e-01 -9.32893e-01  7.77232e-01
       L  4.75531e+01  8.90845e-01  4.15753e-01
       L  8.91977e-01  5.80584e+00  1.00683e+00
6
# CELL(abcABC):  459.05226   459.05226   459.05226    90.00000    90.00000    90.00000  Step:          39  Bead:       0 x_centroid{angstrom}  cell{atomic_unit}
       C -3.66075e-01 -1.71764e-01  5.07840e-02
       O  8.54762e-01  3.05670e-01 -1.56086e-01
       H  4.64166e-02  8.01190e-01 -7.22968e-01
       H -4.09231e-01 -9.36742e-01  7.75270e-01
       L  4.64407e+01  9.31344e-01  4.64296e-01
       L  6.53537e-01  5.50447e+00  1.40266e+00
6
# CELL(abcABC):  459.05226   459.05226   459.05226    90.00000    90.00000    90.00000  Step:          40  Bead:       0 x_centroid{angstrom}  cell{atomic_unit}
       C -3.68568e-01 -1.72953e-01  5.07083e-02
       O  8.56050e-01  3.07273e-01 -1.55781e-01
       H  6.21472e-02  7.96513e-01 -7.28121e-01
       H -4.14935e-01 -9.43213e-01  7.76241e-01
       L  4.52836e+01  9.93688e-01  5.29593e-01
       L  4.10350e-01  5.20275e+00  1.78821e+00
6
# CELL(abcABC):  459.05226   459.05226   459.05226    90.00000    90.00000    90.00000  Step:          41  Bead:       0 x_centroid{angstrom}  cell{atomic_unit}
       C -3.71384e-01 -1.74192e-01  5.03647e-02
       O  8.57475e-01  3.08994e-01 -1.55426e-01
       H  7.90114e-02  7.91330e-01 -7.32144e-01
       H -4.20037e-01 -9.50482e-01  7.78462e-01
       L  4.40582e+01  1.10321e+00  6.07316e-01
       L  1.21506e-01  4.88498e+00  2.17594e+00
6
# CELL(abcABC):  459.05226   459.05226   459.05226    90.00000    90.00000    90.00000  Step:          42  Bead:       0 x_centroid{angstrom}  cell{atomic_unit}
       C -3.74487e-01 -1.75661e-01  5.01397e-02
       O  8.59038e-01  3.10916e-01 -1.55237e-01
       H  9.64909e-02  7.87323e-01 -7.36625e-01
       H -4.24537e-01 -9.59396e-01  7.82369e-01
       L  4.27911e+01  1.24866e+00  6.95914e-01
       L -1.16808e-01  4.59802e+00  2.55294e+00
6
# CELL(abcABC):  459.05226   459.05226   459.05226    90.00000    90.00000    90.00000  Step:          43  Bead:       0 x_centroid{angstrom}  cell{atomic_unit}
       C -3.78093e-01 -1.77474e-01  4.98812e-02
       O  8.61016e-01  3.12939e-01 -1.55072e-01
       H  1.15388e-01  7.85644e-01 -7.41876e-01
       H -4.31013e-01 -9.68154e-01  7.87867e-01
       L  4.14495e+01  1.39067e+00  7.48746e-01
       L -3.35471e-01  4.32991e+00  2.90231e+00
6
# CELL(abcABC):  459.05226   459.05226   459.05226    90.00000    90.00000    90.00000  Step:          44  Bead:       0 x_centroid{angstrom}  cell{atomic_unit}
       C -3.82300e-01 -1.79592e-01  4.96107e-02
       O  8.63447e-01  3.15080e-01 -1.55021e-01
       H  1.34777e-01  7.86592e-01 -7.47386e-01
       H -4.37986e-01 -9.77778e-01  7.95619e-01
       L  4.00177e+01  1.50269e+00  7.56515e-01
       L -5.19369e-01  4.06164e+00  3.20734e+00
6
# CELL(abcABC):  459.05226   459.05226   459.05226    90.00000    90.00000    90.00000  Step:          45  Bead:       0 x_centroid{angstrom}  cell{atomic_unit}
       C -3.87037e-01 -1.82197e-01  4.96584e-02
       O  8.66195e-01  3.17399e-01 -1.55343e-01
       H  1.56112e-01  7.89742e-01 -7.52609e-01
       H -4.45540e-01 -9.86594e-01  8.05233e-01
       L  3.84901e+01  1.53611e+00  7.53258e-01
       L -7.21603e-01  3.84254e+00  3.49302e+00
6
# CELL(abcABC):  459.05226   459.05226   459.05226    90.00000    90.00000    90.00000  Step:          46  Bead:       0 x_centroid{angstrom}  cell{atomic_unit}
       C -3.92086e-01 -1.85303e-01  4.99359e-02
       O  8.68947e-01  3.19795e-01 -1.55853e-01
       H  1.80611e-01  7.94968e-01 -7.58540e-01
       H -4.52600e-01 -9.92725e-01  8.15793e-01
       L  3.68731e+01  1.56318e+00  7.88955e-01
       L -8.81477e-01  3.62173e+00  3.74844e+00
6
# CELL(abcABC):  459.05226   459.05226   459.05226    90.00000    90.00000    90.00000  Step:          47  Bead:       0 x_centroid{angstrom}  cell{atomic_unit}
       C -3.97528e-01 -1.88612e-01  5.04426e-02
       O  8.71644e-01  3.21926e-01 -1.56538e-01
       H  2.08620e-01  8.03328e-01 -7.64705e-01
       H -4.57526e-01 -9.95401e-01  8.26688e-01
       L  3.51461e+01  1.60986e+00  8.30452e-01
       L -1.05428e+00  3.42283e+00  3.90821e+00
6
# CELL(abcABC):  459.05226   459.05226   459.05226    90.00000    90.00000    90.00000  Step:          48  Bead:       0 x_centroid{angstrom}  cell{atomic_unit}
       C -4.03377e-01 -1.92443e-01  5.10919e-02
       O  8.74269e-01  3.24175e-01 -1.57412e-01
       H  2.41125e-01  8.14784e-01 -7.69904e-01
       H -4.60953e-01 -9.96830e-01  8.37933e-01
       L  3.33738e+01  1.63652e+00  8.33800e-01
       L -1.23582e+00  3.25140e+00  4.06564e+00
6
# CELL(abcABC):  459.05226   459.05226   459.05226    90.00000    90.00000    90.00000  Step:          49  Bead:       0 x_centroid{angstrom}  cell{atomic_unit}
       C -4.09552e-01 -1.96645e-01  5.22894e-02
       O  8.76822e-01  3.26491e-01 -1.58624e-01
       H  2.76180e-01  8.26847e-01 -7.75421e-01
       H -4.61858e-01 -9.95497e-01  8.48379e-01
       L  3.15251e+01  1.65946e+00  7.78477e-01
       L -1.39952e+00  3.06241e+00  4.20189e+00
6
# CELL(abcABC):  459.05226   459.05226   459.05226    90.00000    90.00000    90.00000  Step:          50  Bead:       0 x_centroid{angstrom}  cell{atomic_unit}
       C -4.16307e-01 -2.01074e-01  5.39406e-02
       O  8.79542e-01  3.28789e-01 -1.59988e-01
       H  3.15273e-01  8.38951e-01 -7.81393e-01
       H -4.62555e-01 -9.91221e-01  8.56285e-01
       L  2.97084e+01  1.71479e+00  7.81292e-01
       L -1.54617e+00  2.87227e+00  4.26494e+00
6
# CELL(abcABC):  459.05226   459.05226   459.05226    90.00000    90.00000    90.00000  Step:          51  Bead:       0 x_centroid{angstrom}  cell{atomic_unit}
       C -4.23079e-01 -2.06130e-01  5.56251e-02
       O  8.81856e-01  3.31252e-01 -1.61164e-01
       H  3.58342e-01  8.52675e-01 -7.87515e-01
       H -4.60535e-01 -9.83718e-01  8.60969e-01
       L  2.77971e+01  1.73119e+00  7.80970e-01
       L -1.71549e+00  2.71210e+00  4.33678e+00
6
# CELL(abcABC):  459.05226   459.05226   459.05226    90.00000    90.00000    90.00000  Step:          52  Bead:       0 x_centroid{angstrom}  cell{atomic_unit}
       C -4.29822e-01 -2.11377e-01  5.74931e-02
       O  8.83846e-01  3.33661e-01 -1.62373e-01
       H  4.05070e-01  8.67434e-01 -7.94363e-01
       H -4.57343e-01 -9.74113e-01  8.64720e-01
       L  2.58004e+01  1.78238e+00  7.61806e-01
       L -1.83688e+00  2.51409e+00  4.40745e+00
6
# CELL(abcABC):  459.05226   459.05226   459.05226    90.00000    90.00000    90.00000  Step:          53  Bead:       0 x_centroid{angstrom}  cell{atomic_unit}
       C -4.36908e-01 -2.16833e-01  5.95173e-02
       O  8.85789e-01  3.36007e-01 -1.63641e-01
       H  4.53455e-01  8.83782e-01 -8.01238e-01
       H -4.50955e-01 -9.62609e-01  8.67615e-01
       L  2.37967e+01  1.85579e+00  7.30998e-01
       L -1.99770e+00  2.28222e+00  4.41696e+00
6
# CELL(abcABC):  459.05226   459.05226   459.05226    90.00000    90.00000    90.00000  Step:          54  Bead:       0 x_centroid{angstrom}  cell{atomic_unit}
       C -4.44135e-01 -2.22149e-01  6.15397e-02
       O  8.87563e-01  3.38135e-01 -1.64887e-01
       H  5.03993e-01  9.01330e-01 -8.08594e-01
       H -4.42313e-01 -9.50482e-01  8.70723e-01
       L  2.17306e+01  1.90664e+00  7.03867e-01
       L -2.17981e+00  2.03905e+00  4.31248e+00
6
# CELL(abcABC):  459.05226   459.05226   459.05226    90.00000    90.00000    90.00000  Step:          55  Bead:       0 x_centroid{angstrom}  cell{atomic_unit}
       C -4.51535e-01 -2.27435e-01  6.35504e-02
       O  8.89261e-01  3.40069e-01 -1.66025e-01
       H  5.55720e-01  9.21457e-01 -8.16792e-01
       H -4.31580e-01 -9.38196e-01  8.73123e-01
       L  1.96631e+01  1.93563e+00  7.06657e-01
       L -2.36635e+00  1.79075e+00  4.10619e+00
6
# CELL(abcABC):  459.05226   459.05226   459.05226    90.00000    90.00000    90.00000  Step:          56  Bead:       0 x_centroid{angstrom}  cell{atomic_unit}
       C -4.58865e-01 -2.32332e-01  6.51788e-02
       O  8.90890e-01  3.41857e-01 -1.66881e-01
       H  6.06518e-01  9.41113e-01 -8.25432e-01
       H -4.19655e-01 -9.27725e-01  8.76106e-01
       L  1.75437e+01  1.94221e+00  6.92446e-01
       L -2.51501e+00  1.49125e+00  3.85344e+00
6
# CELL(abcABC):  459.05226   459.05226   459.05226    90.00000    90.00000    90.00000  Step:          57  Bead:       0 x_centroid{angstrom}  cell{atomic_unit}
       C -4.66139e-01 -2.36875e-01  6.65808e-02
       O  8.92437e-01  3.43534e-01 -1.67429e-01
       H  6.56260e-01  9.60846e-01 -8.35790e-01
       H -4.06060e-01 -9.19737e-01  8.78619e-01
       L  1.53999e+01  1.88904e+00  6.66444e-01
       L -2.61568e+00  1.16942e+00  3.58000e+00
6
# CELL(abcABC):  459.05226   459.05226   459.05226    90.00000    90.00000    90.00000  Step:          58  Bead:       0 x_centroid{angstrom}  cell{atomic_unit}
       C -4.73719e-01 -2.41172e-01  6.79128e-02
       O  8.94255e-01  3.45172e-01 -1.67972e-01
       H  7.03827e-01  9.80011e-01 -8.45854e-01
       H -3.90876e-01 -9.13454e-01  8.81541e-01
       L  1.31438e+01  1.85725e+00  7.03516e-01
       L -2.71169e+00  7.60140e-01  3.31377e+00
6
# CELL(abcABC):  459.05226   459.05226   459.05226    90.00000    90.00000    90.00000  Step:          59  Bead:       0 x_centroid{angstrom}  cell{atomic_unit}
       C -4.80944e-01 -2.44924e-01  6.88677e-02
       O  8.95782e-01  3.46789e-01 -1.68221e-01
       H  7.51037e-01  9.96243e-01 -8.56981e-01
       H -3.74934e-01 -9.10399e-01  8.85365e-01
       L  1.08484e+01  1.84653e+00  7.81408e-01
       L -2.81789e+00  3.35919e-01  3.03320e+00
6
# CELL(abcABC):  459.05226   459.05226   459.05226    90.00000    90.00000    90.00000  Step:          60  Bead:       0 x_centroid{angstrom}  cell{atomic_unit}
       C -4.88284e-01 -2.48067e-01  6.98388e-02
       O  8.97337e-01  3.48369e-01 -1.68506e-01
       H  7.96823e-01  1.00695e+00 -8.67628e-01
       H -3.56643e-01 -9.08481e-01  8.89094e-01
       L  8.55144e+00  1.86873e+00  8.71207e-01
       L -2.88429e+00 -1.55356e-01  2.69030e+00
6
# CELL(abcABC):  459.05226   459.05226   459.05226    90.00000    90.00000    90.00000  Step:          61  Bead:       0 x_centroid{angstrom}  cell{atomic_unit}
       C -4.95441e-01 -2.50758e-01  7.05836e-02
       O  8.99045e-01  3.50040e-01 -1.68740e-01
       H  8.37772e-01  1.01290e+00 -8.77229e-01
       H -3.38143e-01 -9.08658e-01  8.93734e-01
       L  6.19928e+00  1.93299e+00  9.41882e-01
       L -2.90219e+00 -6.54004e-01  2.26213e+00
6
# CELL(abcABC):  459.05226   459.05226   459.05226    90.00000    90.00000    90.00000  Step:          62  Bead:       0 x_centroid{angstrom}  cell{atomic_unit}
       C -5.02264e-01 -2.52997e-01  7.12804e-02
       O  9.00624e-01  3.51864e-01 -1.69058e-01
       H  8.75440e-01  1.01308e+00 -8.84191e-01
       H -3.18246e-01 -9.10858e-01  8.97670e-01
       L  3.77771e+00  1.99359e+00  9.77007e-01
       L -2.88649e+00 -1.18346e+00  1.81132e+00
6
# CELL(abcABC):  459.05226   459.05226   459.05226    90.00000    90.00000    90.00000  Step:          63  Bead:       0 x_centroid{angstrom}  cell{atomic_unit}
       C -5.08792e-01 -2.54822e-01  7.16172e-02
       O  9.02141e-01  3.53864e-01 -1.69210e-01
       H  9.09331e-01  1.00755e+00 -8.89043e-01
       H -2.97118e-01 -9.15044e-01  9.01161e-01
       L  1.33625e+00  2.03064e+00  9.99991e-01
       L -2.86980e+00 -1.74697e+00  1.34903e+00
6
# CELL(abcABC):  459.05226   459.05226   459.05226    90.00000    90.00000    90.00000  Step:          64  Bead:       0 x_centroid{angstrom}  cell{atomic_unit}
       C -5.14587e-01 -2.56268e-01  7.15223e-02
       O  9.03174e-01  3.55890e-01 -1.69098e-01
       H  9.41065e-01  9.97940e-01 -8.91842e-01
       H -2.74859e-01 -9.20046e-01  9.03539e-01
       L -1.11452e+00  2.05373e+00  1.02471e+00
       L -2.84845e+00 -2.34181e+00  8.93822e-01
6
# CELL(abcABC):  459.05226   459.05226   459.05226    90.00000    90.00000    90.00000  Step:          65  Bead:       0 x_centroid{angstrom}  cell{atomic_unit}
       C -5.19459e-01 -2.56985e-01  7.11718e-02
       O  9.03591e-01  3.57635e-01 -1.68770e-01
       H  9.70201e-01  9.84378e-01 -8.94208e-01
       H -2.51273e-01 -9.25324e-01  9.05098e-01
       L -3.61145e+00  2.07679e+00  1.02653e+00
       L -2.73180e+00 -2.94571e+00  4.76607e-01
6
# CELL(abcABC):  459.05226   459.05226   459.05226    90.00000    90.00000    90.00000  Step:          66  Bead:       0 x_centroid{angstrom}  cell{atomic_unit}
       C -5.23132e-01 -2.57055e-01  7.05914e-02