6
# CELL(abcABC):  459.05226   459.05226   459.05226    90.00000    90.00000    90.00000  Step:           0  Bead:       0 x_centroid{angstrom}  cell{atomic_unit}
       C -3.39887e-01 -1.13437e-01  8.06659e-02
       O  8.43483e-01  2.62672e-01 -1.81512e-01
       H -7.35799e-02  8.16467e-01 -6.61432e-01
       H -4.30016e-01 -9.65701e-01  7.62278e-01
       L  6.13458e+01  0.00000e+00  0.00000e+00
       L  0.00000e+00  8.59064e+00  0.00000e+00
6
# CELL(abcABC):  459.05226   459.05226   459.05226    90.00000    90.00000    90.00000  Step:           1  Bead:       0 x_centroid{angstrom}  cell{atomic_unit}
       C -3.42229e-01 -1.12367e-01  8.11292e-02
       O  8.45792e-01  2.61106e-01 -1.79972e-01
       H -7.86037e-02  8.27811e-01 -6.64194e-01
       H -4.34120e-01 -9.65238e-01  7.34889e-01
       L  6.16446e+01  2.40003e-01  1.82106e-01
       L  3.96611e-01  8.88075e+00  1.50871e-01
6
# CELL(abcABC):  459.05226   459.05226   459.05226    90.00000    90.00000    90.00000  Step:           2  Bead:       0 x_centroid{angstrom}  cell{atomic_unit}
       C -3.44436e-01 -1.11344e-01  8.18346e-02
       O  8.47590e-01  2.59657e-01 -1.78735e-01
       H -7.81532e-02  8.40144e-01 -6.66373e-01
       H -4.37206e-01 -9.67010e-01  7.08813e-01
       L  6.20140e+01  4.79116e-01  3.84754e-01
       L  7.61882e-01  9.11799e+00  3.24813e-01
6
# CELL(abcABC):  459.05226   459.05226   459.05226    90.00000    90.00000    90.00000  Step:           3  Bead:       0 x_centroid{angstrom}  cell{atomic_unit}
       C -3.46146e-01 -1.10049e-01  8.24372e-02
       O  8.48460e-01  2.58249e-01 -1.77648e-01
       H -7.07311e-02  8.50902e-01 -6.67272e-01
       H -4.38500e-01 -9.71135e-01  6.85088e-01
       L  6.24192e+01  6.58391e-01  5.83253e-01
       L  1.16732e+00  9.43579e+00  4.76848e-01
6
# CELL(abcABC):  459.05226   459.05226   459.05226    90.00000    90.00000    90.00000  Step:           4  Bead:       0 x_centroid{angstrom}  cell{atomic_unit}
       C -3.47563e-01 -1.08295e-01  8.29317e-02
       O  8.48793e-01  2.56856e-01 -1.76730e-01
       H -5.92241e-02  8.60487e-01 -6.67474e-01
       H -4.38849e-01 -9.79738e-01  6.64633e-01
       L  6.28165e+01  8.31752e-01  7.95272e-01
       L  1.58429e+00  9.68961e+00  6.22886e-01
6
# CELL(abcABC):  459.05226   459.05226   459.05226    90.00000    90.00000    90.00000  Step:           5  Bead:       0 x_centroid{angstrom}  cell{atomic_unit}
       C -3.48646e-01 -1.06230e-01  8.30519e-02
       O  8.48818e-01  2.55725e-01 -1.75775e-01
       H -4.59412e-02  8.66904e-01 -6.65423e-01
       H -4.40053e-01 -9.92987e-01  6.45794e-01
       L  6.32294e+01  9.57109e-01  1.01789e+00
       L  1.95153e+00  9.90624e+00  7.68400e-01
6
# CELL(abcABC):  459.05226   459.05226   459.05226    90.00000    90.00000    90.00000  Step:           6  Bead:       0 x_centroid{angstrom}  cell{atomic_unit}
       C -3.49681e-01 -1.03939e-01  8.30927e-02
       O  8.49063e-01  2.54747e-01 -1.74888e-01
       H -3.59978e-02  8.69662e-01 -6.62894e-01
       H -4.41930e-01 -1.00767e+00  6.28488e-01
       L  6.35967e+01  1.01265e+00  1.22643e+00
       L  2.29606e+00  1.01189e+01  9.49302e-01
6
# CELL(abcABC):  459.05226   459.05226   459.05226    90.00000    90.00000    90.00000  Step:           7  Bead:       0 x_centroid{angstrom}  cell{atomic_unit}
       C -3.51193e-01 -1.01262e-01  8.30613e-02
       O  8.50306e-01  2.53730e-01 -1.74141e-01
       H -3.39687e-02  8.70038e-01 -6.57540e-01
       H -4.45979e-01 -1.02392e+00  6.11467e-01
       L  6.38464e+01  9.98393e-01  1.39157e+00
       L  2.61652e+00  1.03490e+01  1.12495e+00
6
# CELL(abcABC):  459.05226   459.05226   459.05226    90.00000    90.00000    90.00000  Step:           8  Bead:       0 x_centroid{angstrom}  cell{atomic_unit}
       C -3.53153e-01 -9.87291e-02  8.27897e-02
       O  8.52418e-01  2.52982e-01 -1.73339e-01
       H -3.85345e-02  8.67493e-01 -6.50422e-01
       H -4.51861e-01 -1.03981e+00  5.94656e-01
       L  6.40288e+01  9.63527e-01  1.58755e+00
       L  2.92221e+00  1.05989e+01  1.29429e+00
6
# CELL(abcABC):  459.05226   459.05226   459.05226    90.00000    90.00000    90.00000  Step:           9  Bead:       0 x_centroid{angstrom}  cell{atomic_unit}
       C -3.55254e-01 -9.61722e-02  8.22220e-02
       O  8.54892e-01  2.52234e-01 -1.72421e-01
       H -4.61497e-02  8.65363e-01 -6.42256e-01
       H -4.58679e-01 -1.05639e+00  5.78472e-01
       L  6.41512e+01  9.57256e-01  1.76404e+00
       L  3.17311e+00  1.08277e+01  1.48406e+00
6
# CELL(abcABC):  459.05226   459.05226   459.05226    90.00000    90.00000    90.00000  Step:          10  Bead:       0 x_centroid{angstrom}  cell{atomic_unit}
       C -3.57168e-01 -9.34081e-02  8.16051e-02
       O  8.57220e-01  2.51367e-01 -1.71560e-01
       H -5.39277e-02  8.63164e-01 -6.34047e-01
       H -4.65211e-01 -1.07346e+00  5.63804e-01
       L  6.42471e+01  9.06507e-01  1.89779e+00
       L  3.36083e+00  1.10451e+01  1.62679e+00
6
# CELL(abcABC):  459.05226   459.05226   459.05226    90.00000    90.00000    90.00000  Step:          11  Bead:       0 x_centroid{angstrom}  cell{atomic_unit}
       C -3.58525e-01 -9.05131e-02  8.11584e-02
       O  8.58703e-01  2.50309e-01 -1.70821e-01
       H -5.64502e-02  8.62036e-01 -6.26851e-01
       H -4.70223e-01 -1.09013e+00  5.50071e-01
       L  6.43722e+01  8.38242e-01  2.02025e+00
       L  3.53737e+00  1.12877e+01  1.74187e+00
6
# CELL(abcABC):  459.05226   459.05226   459.05226    90.00000    90.00000    90.00000  Step:          12  Bead:       0 x_centroid{angstrom}  cell{atomic_unit}
       C -3.59442e-01 -8.76786e-02  8.02749e-02
       O  8.59476e-01  2.49189e-01 -1.69824e-01
       H -5.29943e-02  8.63308e-01 -6.20741e-01
       H -4.75172e-01 -1.10748e+00  5.38554e-01
       L  6.45255e+01  7.12524e-01  2.12841e+00
       L  3.68653e+00  1.15727e+01  1.83223e+00
6
# CELL(abcABC):  459.05226   459.05226   459.05226    90.00000    90.00000    90.00000  Step:          13  Bead:       0 x_centroid{angstrom}  cell{atomic_unit}
       C -3.60017e-01 -8.48983e-02  7.93783e-02
       O  8.59703e-01  2.47847e-01 -1.69009e-01
       H -4.47787e-02  8.67023e-01 -6.13612e-01
       H -4.80301e-01 -1.12316e+00  5.29091e-01
       L  6.47420e+01  5.85369e-01  2.21631e+00
       L  3.75979e+00  1.19538e+01  1.88419e+00
6
# CELL(abcABC):  459.05226   459.05226   459.05226    90.00000    90.00000    90.00000  Step:          14  Bead:       0 x_centroid{angstrom}  cell{atomic_unit}
       C -3.60151e-01 -8.21913e-02  7.82614e-02
       O  8.59550e-01  2.46360e-01 -1.67962e-01
       H -3.57960e-02  8.71131e-01 -6.07107e-01
       H -4.85375e-01 -1.13606e+00  5.19269e-01
       L  6.49046e+01  4.79350e-01  2.24245e+00
       L  3.79179e+00  1.23137e+01  1.88586e+00
6
# CELL(abcABC):  459.05226   459.05226   459.05226    90.00000    90.00000    90.00000  Step:          15  Bead:       0 x_centroid{angstrom}  cell{atomic_unit}
       C -3.60314e-01 -7.96908e-02  7.69907e-02
       O  8.59733e-01  2.44864e-01 -1.66802e-01
       H -3.13423e-02  8.74629e-01 -6.00277e-01
       H -4.90895e-01 -1.14576e+00  5.09209e-01
       L  6.51118e+01  3.62351e-01  2.24127e+00
       L  3.79258e+00  1.27049e+01  1.80500e+00
6
# CELL(abcABC):  459.05226   459.05226   459.05226    90.00000    90.00000    90.00000  Step:          16  Bead:       0 x_centroid{angstrom}  cell{atomic_unit}
       C -3.60462e-01 -7.77727e-02  7.58582e-02
       O  8.60454e-01  2.43411e-01 -1.65650e-01
       H -3.32790e-02  8.77806e-01 -5.92712e-01
       H -4.98772e-01 -1.14882e+00  4.96922e-01
       L  6.53167e+01  1.88149e-01  2.17255e+00
       L  3.82060e+00  1.30620e+01  1.75018e+00
6
# CELL(abcABC):  459.05226   459.05226   459.05226    90.00000    90.00000    90.00000  Step:          17  Bead:       0 x_centroid{angstrom}  cell{atomic_unit}
       C -3.60603e-01 -7.65112e-02  7.46085e-02
       O  8.61368e-01  2.42053e-01 -1.64361e-01
       H -3.88523e-02  8.81145e-01 -5.84580e-01
       H -5.06099e-01 -1.14569e+00  4.83313e-01
       L  6.54724e+01 -4.40161e-02  2.08195e+00
       L  3.81192e+00  1.33906e+01  1.66372e+00
6
# CELL(abcABC):  459.05226   459.05226   459.05226    90.00000    90.00000    90.00000  Step:          18  Bead:       0 x_centroid{angstrom}  cell{atomic_unit}
       C -3.60443e-01 -7.55912e-02  7.33360e-02
       O  8.62209e-01  2.40704e-01 -1.62857e-01
       H -4.51075e-02  8.83880e-01 -5.78168e-01
       H -5.15157e-01 -1.13806e+00  4.68294e-01
       L  6.56278e+01 -2.30147e-01  1.95327e+00
       L  3.75347e+00  1.37265e+01  1.61626e+00
6
# CELL(abcABC):  459.05226   459.05226   459.05226    90.00000    90.00000    90.00000  Step:          19  Bead:       0 x_centroid{angstrom}  cell{atomic_unit}
       C -3.60006e-01 -7.49181e-02  7.22470e-02
       O  8.62426e-01  2.39252e-01 -1.61260e-01
       H -4.64708e-02  8.88547e-01 -5.74627e-01
       H -5.22488e-01 -1.12780e+00  4.52508e-01
       L  6.58452e+01 -3.81581e-01  1.76020e+00
       L  3.60919e+00  1.40616e+01  1.57079e+00
6
# CELL(abcABC):  459.05226   459.05226   459.05226    90.00000    90.00000    90.00000  Step:          20  Bead:       0 x_centroid{angstrom}  cell{atomic_unit}
       C -3.59190e-01 -7.39822e-02  7.12214e-02
       O  8.61818e-01  2.37601e-01 -1.59582e-01
       H -4.13995e-02  8.93912e-01 -5.72706e-01
       H -5.27672e-01 -1.11824e+00  4.36312e-01
       L  6.60528e+01 -5.33534e-01  1.59708e+00
       L  3.47813e+00  1.44295e+01  1.46905e+00
6
# CELL(abcABC):  459.05226   459.05226   459.05226    90.00000    90.00000    90.00000  Step:          21  Bead:       0 x_centroid{angstrom}  cell{atomic_unit}
       C -3.57862e-01 -7.32063e-02  7.00803e-02
       O  8.60454e-01  2.35957e-01 -1.57804e-01
       H -3.16758e-02  9.00449e-01 -5.72131e-01
       H -5.31653e-01 -1.10807e+00  4.21241e-01
       L  6.62929e+01 -6.35958e-01  1.42961e+00
       L  3.38305e+00  1.48106e+01  1.40341e+00
6
# CELL(abcABC):  459.05226   459.05226   459.05226    90.00000    90.00000    90.00000  Step:          22  Bead:       0 x_centroid{angstrom}  cell{atomic_unit}
       C -3.56417e-01 -7.22356e-02  6.94026e-02
       O  8.58997e-01  2.34119e-01 -1.56383e-01
       H -2.04532e-02  9.07330e-01 -5.71345e-01
       H -5.36989e-01 -1.09745e+00  4.06117e-01
       L  6.64826e+01 -7.52421e-01  1.28111e+00
       L  3.25837e+00  1.51494e+01  1.28929e+00
6
# CELL(abcABC):  459.05226   459.05226   459.05226    90.00000    90.00000    90.00000  Step:          23  Bead:       0 x_centroid{angstrom}  cell{atomic_unit}
       C -3.54891e-01 -7.11140e-02  6.85477e-02
       O  8.57688e-01  2.32143e-01 -1.54943e-01
       H -1.28571e-02  9.13391e-01 -5.69402e-01
       H -5.41940e-01 -1.08559e+00  3.91625e-01
       L  6.65962e+01 -8.94665e-01  1.15619e+00
       L  3.05581e+00  1.54362e+01  1.18956e+00
6
# CELL(abcABC):  459.05226   459.05226   459.05226    90.00000    90.00000    90.00000  Step:          24  Bead:       0 x_centroid{angstrom}  cell{atomic_unit}
       C -3.54041e-01 -6.99228e-02  6.72491e-02
       O  8.57329e-01  2.30099e-01 -1.53217e-01
       H -1.10104e-02  9.18991e-01 -5.67470e-01
       H -5.48188e-01 -1.07304e+00  3.77864e-01
       L  6.67355e+01 -1.01043e+00  1.07047e+00
       L  2.83088e+00  1.57349e+01  1.10016e+00
6
# CELL(abcABC):  459.05226   459.05226   459.05226    90.00000    90.00000    90.00000  Step:          25  Bead:       0 x_centroid{angstrom}  cell{atomic_unit}
       C -3.53376e-01 -6.86282e-02  6.61038e-02
       O  8.57476e-01  2.28100e-01 -1.51791e-01
       H -1.27218e-02  9.24227e-01 -5.64071e-01
       H -5.56645e-01 -1.06206e+00  3.65582e-01
       L  6.68461e+01 -1.13944e+00  9.72978e-01
       L  2.55735e+00  1.60200e+01  1.00919e+00
6
# CELL(abcABC):  459.05226   459.05226   459.05226    90.00000    90.00000    90.00000  Step:          26  Bead:       0 x_centroid{angstrom}  cell{atomic_unit}
       C -3.52804e-01 -6.69924e-02  6.46040e-02
       O  8.57805e-01  2.26070e-01 -1.50331e-01
       H -1.60191e-02  9.28709e-01 -5.59822e-01
       H -5.65274e-01 -1.05391e+00  3.56135e-01
       L  6.69334e+01 -1.23979e+00  9.15770e-01
       L  2.28038e+00  1.62923e+01  8.76799e-01
6
# CELL(abcABC):  459.05226   459.05226   459.05226    90.00000    90.00000    90.00000  Step:          27  Bead:       0 x_centroid{angstrom}  cell{atomic_unit}
       C -3.52047e-01 -6.49482e-02  6.29425e-02
       O  8.58043e-01  2.24025e-01 -1.48995e-01
       H -2.02505e-02  9.32454e-01 -5.53017e-01
       H -5.73725e-01 -1.04962e+00  3.48072e-01
       L  6.70131e+01 -1.38434e+00  8.12352e-01
       L  1.98922e+00  1.65409e+01  7.14314e-01
6
# CELL(abcABC):  459.05226   459.05226   459.05226    90.00000    90.00000    90.00000  Step:          28  Bead:       0 x_centroid{angstrom}  cell{atomic_unit}
       C -3.51355e-01 -6.27228e-02  6.12203e-02
       O  8.57999e-01  2.22201e-01 -1.47672e-01
       H -2.07752e-02  9.35049e-01 -5.46717e-01
       H -5.80623e-01 -1.04981e+00  3.41416e-01
       L  6.70810e+01 -1.56124e+00  7.22680e-01
       L  1.67617e+00  1.67998e+01  5.64406e-01
6
# CELL(abcABC):  459.05226   459.05226   459.05226    90.00000    90.00000    90.00000  Step:          29  Bead:       0 x_centroid{angstrom}  cell{atomic_unit}
       C -3.50283e-01 -6.01932e-02  5.95859e-02
       O  8.57530e-01  2.20485e-01 -1.46486e-01
       H -1.86105e-02  9.36632e-01 -5.39939e-01
       H -5.88015e-01 -1.05436e+00  3.35403e-01
       L  6.72020e+01 -1.73983e+00  6.52653e-01
       L  1.35984e+00  1.70826e+01  4.21307e-01
6
# CELL(abcABC):  459.05226   459.05226   459.05226    90.00000    90.00000    90.00000  Step:          30  Bead:       0 x_centroid{angstrom}  cell{atomic_unit}
       C -3.49295e-01 -5.73829e-02  5.83774e-02
       O  8.56945e-01  2.18805e-01 -1.45635e-01
       H -1.42639e-02  9.37070e-01 -5.34255e-01
       H -5.94742e-01 -1.06168e+00  3.30690e-01
       L  6.73870e+01 -1.89319e+00  5.94383e-01
       L  9.82112e-01  1.73566e+01  3.31291e-01
6
# CELL(abcABC):  459.05226   459.05226   459.05226    90.00000    90.00000    90.00000  Step:          31  Bead:       0 x_centroid{angstrom}  cell{atomic_unit}
       C -3.48305e-01 -5.41625e-02  5.69501e-02
       O  8.56302e-01  2.16983e-01 -1.44707e-01
       H -9.06827e-03  9.36843e-01 -5.26991e-01
       H -6.01426e-01 -1.07098e+00  3.25856e-01
       L  6.75772e+01 -2.01999e+00  4.67861e-01
       L  6.05517e-01  1.76295e+01  1.81864e-01
6
# CELL(abcABC):  459.05226   459.05226   459.05226    90.00000    90.00000    90.00000  Step:          32  Bead:       0 x_centroid{angstrom}  cell{atomic_unit}
       C -3.47573e-01 -5.08422e-02  5.53035e-02
       O  8.56096e-01  2.15122e-01 -1.43575e-01
       H -7.75163e-03  9.34666e-01 -5.19869e-01
       H -6.08075e-01 -1.07893e+00  3.20519e-01
       L  6.78111e+01 -2.09597e+00  3.45199e-01
       L  1.88436e-01  1.78821e+01  6.22913e-02
6
# CELL(abcABC):  459.05226   459.05226   459.05226    90.00000    90.00000    90.00000  Step:          33  Bead:       0 x_centroid{angstrom}  cell{atomic_unit}
       C -3.46972e-01 -4.76468e-02  5.34501e-02
       O  8.56280e-01  2.13388e-01 -1.42204e-01
       H -1.11388e-02  9.30605e-01 -5.13175e-01
       H -6.14679e-01 -1.08553e+00  3.14258e-01
       L  6.80360e+01 -2.13431e+00  2.17859e-01
       L -2.16738e-01  1.81297e+01 -1.07878e-02
6
# CELL(abcABC):  459.05226   459.05226   459.05226    90.00000    90.00000    90.00000  Step:          34  Bead:       0 x_centroid{angstrom}  cell{atomic_unit}
       C -3.46162e-01 -4.44531e-02  5.16098e-02
       O  8.56471e-01  2.11624e-01 -1.40977e-01
       H -1.81404e-02  9.24349e-01 -5.03980e-01
       H -6.20249e-01 -1.08941e+00  3.07606e-01
       L  6.81980e+01 -2.19287e+00  1.20735e-01
       L -5.71723e-01  1.83144e+01 -9.23352e-02
6
# CELL(abcABC):  459.05226   459.05226   459.05226    90.00000    90.00000    90.00000  Step:          35  Bead:       0 x_centroid{angstrom}  cell{atomic_unit}
       C -3.45456e-01 -4.14502e-02  4.99590e-02
       O  8.56612e-01  2.09988e-01 -1.39835e-01
       H -2.53278e-02  9.17882e-01 -4.95197e-01
       H -6.23650e-01 -1.09283e+00  3.00425e-01
       L  6.83957e+01 -2.23869e+00  8.27222e-02
       L -9.01321e-01  1.85097e+01 -1.44926e-01
6
# CELL(abcABC):  459.05226   459.05226   459.05226    90.00000    90.00000    90.00000  Step:          36  Bead:       0 x_centroid{angstrom}  cell{atomic_unit}
       C -3.45123e-01 -3.86020e-02  4.84853e-02
       O  8.56758e-01  2.08376e-01 -1.38641e-01
       H -3.14166e-02  9.12952e-01 -4.88786e-01
       H -6.23773e-01 -1.09636e+00  2.92643e-01
       L  6.86621e+01 -2.21912e+00  5.82562e-02
       L -1.29002e+00  1.86696e+01 -1.55120e-01
6
# CELL(abcABC):  459.05226   459.05226   459.05226    90.00000    90.00000    90.00000  Step:          37  Bead:       0 x_centroid{angstrom}  cell{atomic_unit}
       C -3.44817e-01 -3.60091e-02  4.69675e-02
       O  8.56511e-01  2.06717e-01 -1.37228e-01
       H -3.32556e-02  9.10760e-01 -4.85048e-01
       H -6.21634e-01 -1.09881e+00  2.84577e-01
       L  6.89689e+01 -2.14904e+00  3.90726e-03
       L -1.65914e+00  1.87584e+01 -1.30502e-01
6
# CELL(abcABC):  459.05226   459.05226   459.05226    90.00000    90.00000    90.00000  Step:          38  Bead:       0 x_centroid{angstrom}  cell{atomic_unit}
       C -3.44392e-01 -3.38559e-02  4.56774e-02
       O  8.55819e-01  2.05166e-01 -1.35938e-01
       H -3.04981e-02  9.11499e-01 -4.82367e-01
       H -6.18467e-01 -1.10070e+00  2.76781e-01
       L  6.93202e+01 -2.02279e+00 -5.07237e-02
       L -2.03101e+00  1.88461e+01 -6.27505e-02
6
# CELL(abcABC):  459.05226   459.05226   459.05226    90.00000    90.00000    90.00000  Step:          39  Bead:       0 x_centroid{angstrom}  cell{atomic_unit}
       C -3.43936e-01 -3.19644e-02  4.46913e-02
       O  8.54918e-01  2.03550e-01 -1.34842e-01
       H -2.66879e-02  9.15655e-01 -4.81277e-01
       H -6.13421e-01 -1.10193e+00  2.70028e-01
       L  6.97491e+01 -1.82110e+00 -7.05739e-02
       L -2.40803e+00  1.89766e+01 -3.20372e-04
6
# CELL(abcABC):  459.05226   459.05226   459.05226    90.00000    90.00000    90.00000  Step:          40  Bead:       0 x_centroid{angstrom}  cell{atomic_unit}
       C -3.43604e-01 -3.06138e-02  4.36545e-02
       O  8.54140e-01  2.02005e-01 -1.33643e-01
       H -2.36928e-02  9.22321e-01 -4.80363e-01
       H -6.08122e-01 -1.10035e+00  2.62397e-01
       L  7.02432e+01 -1.59708e+00 -5.93802e-02
       L -2.74952e+00  1.90824e+01  5.20814e-02
6
# CELL(abcABC):  459.05226   459.05226   459.05226    90.00000    90.00000    90.00000  Step:          41  Bead:       0 x_centroid{angstrom}  cell{atomic_unit}
       C -3.43468e-01 -2.96689e-02  4.24194e-02
       O  8.53663e-01  2.00479e-01 -1.32184e-01
       H -2.28810e-02  9.29338e-01 -4.81484e-01
       H -6.03066e-01 -1.09459e+00  2.55060e-01
       L  7.07921e+01 -1.30795e+00 -4.78668e-02
       L -3.11410e+00  1.91600e+01  6.59670e-02
6
# CELL(abcABC):  459.05226   459.05226   459.05226    90.00000    90.00000    90.00000  Step:          42  Bead:       0 x_centroid{angstrom}  cell{atomic_unit}
       C -3.43669e-01 -2.88090e-02  4.11633e-02
       O  8.53757e-01  1.98930e-01 -1.30591e-01
       H -2.77483e-02  9.36822e-01 -4.82745e-01
       H -5.97423e-01 -1.08792e+00  2.45981e-01
       L  7.13234e+01 -9.72332e-01 -5.47301e-02
       L -3.43303e+00  1.91504e+01  9.99907e-02
6
# CELL(abcABC):  459.05226   459.05226   459.05226    90.00000    90.00000    90.00000  Step:          43  Bead:       0 x_centroid{angstrom}  cell{atomic_unit}
       C -3.44315e-01 -2.80815e-02  3.99293e-02
       O  8.54353e-01  1.97518e-01 -1.28848e-01
       H -3.49613e-02  9.42118e-01 -4.85924e-01
       H -5.92136e-01 -1.07960e+00  2.36134e-01
       L  7.19404e+01 -6.39716e-01  1.52352e-02
       L -3.76670e+00  1.90489e+01  1.51435e-01
6
# CELL(abcABC):  459.05226   459.05226   459.05226    90.00000    90.00000    90.00000  Step:          44  Bead:       0 x_centroid{angstrom}  cell{atomic_unit}
       C -3.44920e-01 -2.77622e-02  3.88639e-02
       O  8.54946e-01  1.96359e-01 -1.27212e-01
       H -4.31479e-02  9.47630e-01 -4.90070e-01
       H -5.86343e-01 -1.07061e+00  2.26958e-01
       L  7.26099e+01 -2.93380e-01  9.39519e-02
       L -4.07048e+00  1.88786e+01  1.56298e-01
6
# CELL(abcABC):  459.05226   459.05226   459.05226    90.00000    90.00000    90.00000  Step:          45  Bead:       0 x_centroid{angstrom}  cell{atomic_unit}
       C -3.45472e-01 -2.74150e-02  3.74609e-02
       O  8.55264e-01  1.95386e-01 -1.25163e-01
       H -4.69876e-02  9.51181e-01 -4.95009e-01
       H -5.81226e-01 -1.06293e+00  2.16043e-01
       L  7.33466e+01  6.27719e-02  1.71295e-01
       L -4.32566e+00  1.86584e+01  1.76341e-01
6
# CELL(abcABC):  459.05226   459.05226   459.05226    90.00000    90.00000    90.00000  Step:          46  Bead:       0 x_centroid{angstrom}  cell{atomic_unit}
       C -3.45801e-01 -2.68879e-02  3.63089e-02
       O  8.55146e-01  1.94527e-01 -1.23232e-01
       H -4.65968e-02  9.53853e-01 -5.01018e-01
       H -5.76173e-01 -1.05828e+00  2.05077e-01
       L  7.41489e+01  3.41177e-01  2.31487e-01
       L -4.51907e+00  1.84349e+01  2.06837e-01
6
# CELL(abcABC):  459.05226   459.05226   459.05226    90.00000    90.00000    90.00000  Step:          47  Bead:       0 x_centroid{angstrom}  cell{atomic_unit}
       C -3.45895e-01 -2.64697e-02  3.49134e-02
       O  8.54800e-01  1.93999e-01 -1.21192e-01
       H -4.46836e-02  9.54911e-01 -5.06462e-01
       H -5.71861e-01 -1.05599e+00  1.94703e-01
       L  7.50431e+01  6.35602e-01  3.29263e-01
       L -4.68629e+00  1.82343e+01  2.22493e-01
6
# CELL(abcABC):  459.05226   459.05226   459.05226    90.00000    90.00000    90.00000  Step:          48  Bead:       0 x_centroid{angstrom}  cell{atomic_unit}
       C -3.45986e-01 -2.57273e-02  3.33784e-02
       O  8.54600e-01  1.93471e-01 -1.19039e-01
       H -4.34149e-02  9.55033e-01 -5.12677e-01
       H -5.69312e-01 -1.05661e+00  1.85001e-01
       L  7.60187e+01  9.47108e-01  3.86088e-01
       L -4.85640e+00  1.79970e+01  2.28648e-01
6
# CELL(abcABC):  459.05226   459.05226   459.05226    90.00000    90.00000    90.00000  Step:          49  Bead:       0 x_centroid{angstrom}  cell{atomic_unit}
       C -3.45972e-01 -2.47576e-02  3.17633e-02
       O  8.54626e-01  1.92972e-01 -1.16682e-01
       H -4.51960e-02  9.54043e-01 -5.20538e-01
       H -5.68566e-01 -1.05930e+00  1.74686e-01
       L  7.70143e+01  1.22757e+00  4.06591e-01
       L -5.02008e+00  1.77790e+01  2.38757e-01
6
# CELL(abcABC):  459.05226   459.05226   459.05226    90.00000    90.00000    90.00000  Step:          50  Bead:       0 x_centroid{angstrom}  cell{atomic_unit}
       C -3.45897e-01 -2.34119e-02  2.99050e-02
       O  8.54877e-01  1.92422e-01 -1.14244e-01
       H -4.92967e-02  9.51619e-01 -5.27182e-01
       H -5.69842e-01 -1.06419e+00  1.64713e-01
       L  7.80629e+01  1.51216e+00  4.59005e-01
       L -5.13851e+00  1.75175e+01  2.97798e-01
6
# CELL(abcABC):  459.05226   459.05226   459.05226    90.00000    90.00000    90.00000  Step:          51  Bead:       0 x_centroid{angstrom}  cell{atomic_unit}
       C -3.45608e-01 -2.16257e-02  2.81620e-02
       O  8.55268e-01  1.91778e-01 -1.11931e-01
       H -5.57776e-02  9.47999e-01 -5.33466e-01
       H -5.73581e-01 -1.07166e+00  1.55006e-01
       L  7.91389e+01  1.78983e+00  5.17646e-01
       L -5.16653e+00  1.73028e+01  3.20292e-01
6
# CELL(abcABC):  459.05226   459.05226   459.05226    90.00000    90.00000    90.00000  Step:          52  Bead:       0 x_centroid{angstrom}  cell{atomic_unit}
       C -3.45376e-01 -1.98539e-02  2.62605e-02
       O  8.55992e-01  1.91200e-01 -1.09478e-01
       H -6.57335e-02  9.44443e-01 -5.40125e-01
       H -5.78511e-01 -1.08009e+00  1.45357e-01
       L  8.02210e+01  2.05855e+00  5.86026e-01
       L -5.10418e+00  1.71041e+01  3.18084e-01
6
# CELL(abcABC):  459.05226   459.05226   459.05226    90.00000    90.00000    90.00000  Step:          53  Bead:       0 x_centroid{angstrom}  cell{atomic_unit}
       C -3.45119e-01 -1.81124e-02  2.41286e-02
       O  8.56984e-01  1.90607e-01 -1.06808e-01
       H -7.76899e-02  9.40944e-01 -5.46980e-01
       H -5.86024e-01 -1.08796e+00  1.35187e-01
       L  8.13495e+01  2.30951e+00  6.75105e-01
       L -5.00824e+00  1.69242e+01  3.04642e-01
6
# CELL(abcABC):  459.05226   459.05226   459.05226    90.00000    90.00000    90.00000  Step:          54  Bead:       0 x_centroid{angstrom}  cell{atomic_unit}
       C -3.44519e-01 -1.65152e-02  2.20590e-02
       O  8.57796e-01  1.90072e-01 -1.04229e-01
       H -9.00755e-02  9.37955e-01 -5.54067e-01
       H -5.94422e-01 -1.09558e+00  1.25984e-01
       L  8.25736e+01  2.59551e+00  7.42590e-01
       L -4.87769e+00  1.67638e+01  2.70171e-01
6
# CELL(abcABC):  459.05226   459.05226   459.05226    90.00000    90.00000    90.00000  Step:          55  Bead:       0 x_centroid{angstrom}  cell{atomic_unit}
       C -3.43246e-01 -1.49897e-02  1.99199e-02
       O  8.58043e-01  1.89629e-01 -1.01551e-01
       H -1.01707e-01  9.34976e-01 -5.61941e-01
       H -6.02669e-01 -1.10383e+00  1.16867e-01
       L  8.38800e+01  2.87906e+00  7.66696e-01
       L -4.70271e+00  1.66170e+01  1.91794e-01
6
# CELL(abcABC):  459.05226   459.05226   459.05226    90.00000    90.00000    90.00000  Step:          56  Bead:       0 x_centroid{angstrom}  cell{atomic_unit}
       C -3.41474e-01 -1.36028e-02  1.78154e-02
       O  8.57852e-01  1.89272e-01 -9.87987e-02
       H -1.12881e-01  9.32675e-01 -5.71836e-01
       H -6.10435e-01 -1.11244e+00  1.08169e-01
       L  8.52507e+01  3.08114e+00  7.95069e-01
       L -4.51718e+00  1.65169e+01  1.21148e-01
6
# CELL(abcABC):  459.05226   459.05226   459.05226    90.00000    90.00000    90.00000  Step:          57  Bead:       0 x_centroid{angstrom}  cell{atomic_unit}
       C -3.39019e-01 -1.20267e-02  1.58768e-02
       O  8.57039e-01  1.88630e-01 -9.59140e-02
       H -1.22021e-01  9.32978e-01 -5.83801e-01
       H -6.18564e-01 -1.12142e+00  9.75099e-02
       L  8.67139e+01  3.29549e+00  7.16201e-01
       L -4.28658e+00  1.64609e+01  8.24009e-02
6
# CELL(abcABC):  459.05226   459.05226   459.05226    90.00000    90.00000    90.00000  Step:          58  Bead:       0 x_centroid{angstrom}  cell{atomic_unit}
       C -3.35892e-01 -1.06016e-02  1.39197e-02
       O  8.55704e-01  1.87941e-01 -9.28793e-02
       H -1.31768e-01  9.33986e-01 -5.97183e-01
       H -6.25833e-01 -1.12856e+00  8.60933e-02
       L  8.81935e+01  3.50311e+00  6.59809e-01
       L -4.03538e+00  1.64197e+01  4.24233e-02
6
# CELL(abcABC):  459.05226   459.05226   459.05226    90.00000    90.00000    90.00000  Step:          59  Bead:       0 x_centroid{angstrom}  cell{atomic_unit}
       C -3.32138e-01 -9.62052e-03  1.19206e-02
       O  8.54005e-01  1.87245e-01 -8.96218e-02
       H -1.44849e-01  9.37135e-01 -6.12336e-01
       H -6.31548e-01 -1.13247e+00  7.34322e-02
       L  8.97792e+01  3.67067e+00  5.54324e-01
       L -3.72144e+00  1.64771e+01  1.88632e-02
6
# CELL(abcABC):  459.05226   459.05226   459.05226    90.00000    90.00000    90.00000  Step:          60  Bead:       0 x_centroid{angstrom}  cell{atomic_unit}
       C -3.28071e-01 -8.84650e-03  9.83573e-03
       O  8.52152e-01  1.86443e-01 -8.62360e-02
       H -1.61155e-01  9.40711e-01 -6.28889e-01
       H -6.35362e-01 -1.13261e+00  6.11648e-02
       L  9.14476e+01  3.81073e+00  4.23912e-01
       L -3.42503e+00  1.64736e+01  1.45938e-03
6
# CELL(abcABC):  459.05226   459.05226   459.05226    90.00000    90.00000    90.00000  Step:          61  Bead:       0 x_centroid{angstrom}  cell{atomic_unit}
       C -3.23484e-01 -8.17916e-03  7.42477e-03
       O  8.50161e-01  1.85514e-01 -8.25615e-02
       H -1.82351e-01  9.44225e-01 -6.45715e-01
       H -6.38342e-01 -1.12939e+00  4.85105e-02
       L  9.31665e+01  3.90419e+00  2.77589e-01
       L -3.09401e+00  1.64681e+01 -6.80138e-02
6
# CELL(abcABC):  459.05226   459.05226   459.05226    90.00000    90.00000    90.00000  Step:          62  Bead:       0 x_centroid{angstrom}  cell{atomic_unit}
       C -3.18445e-01 -7.14783e-03  4.69871e-03
       O  8.48208e-01  1.84278e-01 -7.87094e-02
       H -2.08290e-01  9.46734e-01 -6.62287e-01
       H -6.42581e-01 -1.12456e+00  3.65442e-02
       L  9.49146e+01  3.90441e+00  1.16660e-01
       L -2.75644e+00  1.64748e+01 -1.34021e-01
6
# CELL(abcABC):  459.05226   459.05226   459.05226    90.00000    90.00000    90.00000  Step:          63  Bead:       0 x_centroid{angstrom}  cell{atomic_unit}
       C -3.12778e-01 -5.78691e-03  1.76237e-03
       O  8.46139e-01  1.82693e-01 -7.47390e-02
       H -2.39382e-01  9.49650e-01 -6.78425e-01
       H -6.47316e-01 -1.11851e+00  2.47758e-02
       L  9.67149e+01  3.83348e+00 -4.72016e-02
       L -2.45213e+00  1.64968e+01 -2.06393e-01
6
# CELL(abcABC):  459.05226   459.05226   459.05226    90.00000    90.00000    90.00000  Step:          64  Bead:       0 x_centroid{angstrom}  cell{atomic_unit}
       C -3.06583e-01 -3.68997e-03 -1.55666e-03
       O  8.43970e-01  1.80614e-01 -7.04499e-02
       H -2.75331e-01  9.51018e-01 -6.94651e-01
       H -6.51969e-01 -1.11184e+00  1.25771e-02
       L  9.85647e+01  3.72998e+00 -2.29731e-01
       L -2.07992e+00  1.65594e+01 -2.21200e-01
6
# CELL(abcABC):  459.05226   459.05226   459.05226    90.00000    90.00000    90.00000  Step:          65  Bead:       0 x_centroid{angstrom}  cell{atomic_unit}
       C -2.99593e-01 -6.28154e-04 -5.49804e-03
       O  8.41652e-01  1.77950e-01 -6.56796e-02
       H -3.18109e-01  9.49686e-01 -7.10111e-01
       H -6.56979e-01 -1.10475e+00 -6.10075e-04
       L  1.00523e+02  3.59681e+00 -3.65557e-01
       L -1.68515e+00  1.67562e+01 -2.82178e-01
6
# CELL(abcABC):  459.05226   459.05226   459.05226    90.00000    90.00000    90.00000  Step:          66  Bead:       0 x_centroid{angstrom}  cell{atomic_unit}
       C -2.91642e-01  3.44434e-03 -1.01267e-02