6
# CELL(abcABC):  459.05226   459.05226   459.05226    90.00000    90.00000    90.00000  Step:           0  Bead:       0 x_centroid{angstrom}  cell{atomic_unit}
       C -3.39887e-01 -1.13437e-01  8.06659e-02
       O  8.43483e-01  2.62672e-01 -1.81512e-01
       H -7.35799e-02  8.16467e-01 -6.61432e-01
       H -4.30016e-01 -9.65701e-01  7.62278e-01
       L  6.13458e+01  0.00000e+00  0.00000e+00
       L  0.00000e+00  8.59064e+00  0.00000e+00
6
# CELL(abcABC):  459.05226   459.05226   459.05226    90.00000    90.00000    90.00000  Step:           1  Bead:       0 x_centroid{angstrom}  cell{atomic_unit}
       C -3.41654e-01 -1.17519e-01  8.06817e-02
       O  8.44980e-01  2.64590e-01 -1.81759e-01
       H -7.47121e-02  8.24818e-01 -6.58486e-01
       H -4.31929e-01 -9.56105e-01  7.62669e-01
       L  6.16540e+01 -3.20518e-01 -1.36296e-01
       L  3.17371e-01  9.36384e+00  8.63786e-01
6
# CELL(abcABC):  459.05226   459.05226   459.05226    90.00000    90.00000    90.00000  Step:           2  Bead:       0 x_centroid{angstrom}  cell{atomic_unit}
       C -3.43079e-01 -1.21456e-01  8.05140e-02
       O  8.46094e-01  2.66477e-01 -1.81840e-01
       H -7.45782e-02  8.31967e-01 -6.55530e-01
       H -4.33059e-01 -9.46541e-01  7.62587e-01
       L  6.19557e+01 -6.60153e-01 -2.85672e-01
       L  5.80065e-01  1.01275e+01  1.75628e+00
6
# CELL(abcABC):  459.05226   459.05226   459.05226    90.00000    90.00000    90.00000  Step:           3  Bead:       0 x_centroid{angstrom}  cell{atomic_unit}
       C -3.44654e-01 -1.25196e-01  8.03270e-02
       O  8.47141e-01  2.68470e-01 -1.81959e-01
       H -7.23294e-02  8.37667e-01 -6.51854e-01
       H -4.33496e-01 -9.39530e-01  7.62630e-01
       L  6.22933e+01 -9.82680e-01 -4.31102e-01
       L  8.32602e-01  1.08941e+01  2.63058e+00
6
# CELL(abcABC):  459.05226   459.05226   459.05226    90.00000    90.00000    90.00000  Step:           4  Bead:       0 x_centroid{angstrom}  cell{atomic_unit}
       C -3.46176e-01 -1.28866e-01  7.98228e-02
       O  8.47975e-01  2.70743e-01 -1.81869e-01
       H -6.81196e-02  8.39984e-01 -6.47808e-01
       H -4.33129e-01 -9.34407e-01  7.62785e-01
       L  6.26183e+01 -1.32678e+00 -6.27077e-01
       L  1.10780e+00  1.16266e+01  3.51299e+00
6
# CELL(abcABC):  459.05226   459.05226   459.05226    90.00000    90.00000    90.00000  Step:           5  Bead:       0 x_centroid{angstrom}  cell{atomic_unit}
       C -3.47825e-01 -1.32342e-01  7.91392e-02
       O  8.48811e-01  2.73198e-01 -1.81797e-01
       H -6.24672e-02  8.39420e-01 -6.42504e-01
       H -4.32737e-01 -9.31648e-01  7.64155e-01
       L  6.29800e+01 -1.61056e+00 -8.48972e-01
       L  1.35678e+00  1.23582e+01  4.33811e+00
6
# CELL(abcABC):  459.05226   459.05226   459.05226    90.00000    90.00000    90.00000  Step:           6  Bead:       0 x_centroid{angstrom}  cell{atomic_unit}
       C -3.49694e-01 -1.35409e-01  7.86573e-02
       O  8.50070e-01  2.75634e-01 -1.81923e-01
       H -5.85261e-02  8.35451e-01 -6.36415e-01
       H -4.34739e-01 -9.30066e-01  7.65471e-01
       L  6.33338e+01 -1.81610e+00 -1.02037e+00
       L  1.63091e+00  1.30516e+01  5.14700e+00
6
# CELL(abcABC):  459.05226   459.05226   459.05226    90.00000    90.00000    90.00000  Step:           7  Bead:       0 x_centroid{angstrom}  cell{atomic_unit}
       C -3.51691e-01 -1.37970e-01  7.82898e-02
       O  8.51685e-01  2.78033e-01 -1.82160e-01
       H -5.79082e-02  8.28173e-01 -6.29567e-01
       H -4.37541e-01 -9.30628e-01  7.66418e-01
       L  6.36965e+01 -2.00166e+00 -1.21683e+00
       L  1.92292e+00  1.37469e+01  5.97132e+00
6
# CELL(abcABC):  459.05226   459.05226   459.05226    90.00000    90.00000    90.00000  Step:           8  Bead:       0 x_centroid{angstrom}  cell{atomic_unit}
       C -3.53640e-01 -1.40161e-01  7.75273e-02
       O  8.53389e-01  2.80409e-01 -1.82212e-01
       H -5.86052e-02  8.19371e-01 -6.22163e-01
       H -4.41009e-01 -9.33719e-01  7.68591e-01
       L  6.40665e+01 -2.17993e+00 -1.36860e+00
       L  2.17160e+00  1.44480e+01  6.72944e+00
6
# CELL(abcABC):  459.05226   459.05226   459.05226    90.00000    90.00000    90.00000  Step:           9  Bead:       0 x_centroid{angstrom}  cell{atomic_unit}
       C -3.55446e-01 -1.42240e-01  7.65641e-02
       O  8.55059e-01  2.82863e-01 -1.82193e-01
       H -5.99630e-02  8.09503e-01 -6.14877e-01
       H -4.45022e-01 -9.38310e-01  7.72221e-01
       L  6.44727e+01 -2.34150e+00 -1.51613e+00
       L  2.48242e+00  1.51310e+01  7.37437e+00
6
# CELL(abcABC):  459.05226   459.05226   459.05226    90.00000    90.00000    90.00000  Step:          10  Bead:       0 x_centroid{angstrom}  cell{atomic_unit}
       C -3.57341e-01 -1.43942e-01  7.53969e-02
       O  8.56748e-01  2.85130e-01 -1.82032e-01
       H -6.01278e-02  8.01194e-01 -6.09327e-01
       H -4.49474e-01 -9.45948e-01  7.77792e-01
       L  6.49252e+01 -2.53413e+00 -1.66804e+00
       L  2.72314e+00  1.57654e+01  7.93580e+00
6
# CELL(abcABC):  459.05226   459.05226   459.05226    90.00000    90.00000    90.00000  Step:          11  Bead:       0 x_centroid{angstrom}  cell{atomic_unit}
       C -3.58934e-01 -1.45666e-01  7.39686e-02
       O  8.57987e-01  2.87382e-01 -1.81579e-01
       H -5.79515e-02  7.95406e-01 -6.05667e-01
       H -4.52669e-01 -9.55571e-01  7.83767e-01
       L  6.53531e+01 -2.74122e+00 -1.81614e+00
       L  2.91180e+00  1.63688e+01  8.45031e+00
6
# CELL(abcABC):  459.05226   459.05226   459.05226    90.00000    90.00000    90.00000  Step:          12  Bead:       0 x_centroid{angstrom}  cell{atomic_unit}
       C -3.60166e-01 -1.47219e-01  7.23091e-02
       O  8.58693e-01  2.89361e-01 -1.80871e-01
       H -5.29716e-02  7.92370e-01 -6.04087e-01
       H -4.54471e-01 -9.65693e-01  7.90557e-01
       L  6.57651e+01 -2.91812e+00 -1.97956e+00
       L  3.05943e+00  1.69910e+01  8.90250e+00
6
# CELL(abcABC):  459.05226   459.05226   459.05226    90.00000    90.00000    90.00000  Step:          13  Bead:       0 x_centroid{angstrom}  cell{atomic_unit}
       C -3.61243e-01 -1.48929e-01  7.05962e-02
       O  8.59189e-01  2.91332e-01 -1.79825e-01
       H -4.72077e-02  7.92086e-01 -6.05790e-01
       H -4.55599e-01 -9.76620e-01  7.95941e-01
       L  6.62068e+01 -2.98189e+00 -2.10391e+00
       L  3.20585e+00  1.76241e+01  9.28563e+00
6
# CELL(abcABC):  459.05226   459.05226   459.05226    90.00000    90.00000    90.00000  Step:          14  Bead:       0 x_centroid{angstrom}  cell{atomic_unit}
       C -3.62104e-01 -1.50802e-01  6.92856e-02
       O  8.59715e-01  2.93119e-01 -1.78920e-01
       H -4.36052e-02  7.94575e-01 -6.09048e-01
       H -4.57608e-01 -9.85536e-01  8.00326e-01
       L  6.66560e+01 -3.01945e+00 -2.17947e+00
       L  3.34926e+00  1.83484e+01  9.58459e+00
6
# CELL(abcABC):  459.05226   459.05226   459.05226    90.00000    90.00000    90.00000  Step:          15  Bead:       0 x_centroid{angstrom}  cell{atomic_unit}
       C -3.63027e-01 -1.52925e-01  6.82701e-02
       O  8.60563e-01  2.94883e-01 -1.77926e-01
       H -4.48684e-02  7.98146e-01 -6.12946e-01
       H -4.59094e-01 -9.92182e-01  8.00438e-01
       L  6.69909e+01 -3.03399e+00 -2.22210e+00
       L  3.52810e+00  1.90409e+01  9.81146e+00
6
# CELL(abcABC):  459.05226   459.05226   459.05226    90.00000    90.00000    90.00000  Step:          16  Bead:       0 x_centroid{angstrom}  cell{atomic_unit}
       C -3.64194e-01 -1.55225e-01  6.75843e-02
       O  8.61849e-01  2.96661e-01 -1.76957e-01
       H -4.96795e-02  8.00684e-01 -6.17361e-01
       H -4.61039e-01 -9.95872e-01  7.97576e-01
       L  6.73140e+01 -3.03094e+00 -2.24259e+00
       L  3.66900e+00  1.96678e+01  9.96341e+00
6
# CELL(abcABC):  459.05226   459.05226   459.05226    90.00000    90.00000    90.00000  Step:          17  Bead:       0 x_centroid{angstrom}  cell{atomic_unit}
       C -3.65428e-01 -1.57564e-01  6.71130e-02
       O  8.63222e-01  2.98345e-01 -1.75938e-01
       H -5.60274e-02  8.03307e-01 -6.22313e-01
       H -4.61981e-01 -9.97712e-01  7.91931e-01
       L  6.76130e+01 -2.97667e+00 -2.21710e+00
       L  3.73768e+00  2.02615e+01  1.00113e+01
6
# CELL(abcABC):  459.05226   459.05226   459.05226    90.00000    90.00000    90.00000  Step:          18  Bead:       0 x_centroid{angstrom}  cell{atomic_unit}
       C -3.66293e-01 -1.59821e-01  6.67084e-02
       O  8.64240e-01  3.00140e-01 -1.74806e-01
       H -6.18300e-02  8.03035e-01 -6.28133e-01
       H -4.62215e-01 -9.99373e-01  7.84581e-01
       L  6.79057e+01 -2.86002e+00 -2.14896e+00
       L  3.77709e+00  2.07844e+01  9.97290e+00
6
# CELL(abcABC):  459.05226   459.05226   459.05226    90.00000    90.00000    90.00000  Step:          19  Bead:       0 x_centroid{angstrom}  cell{atomic_unit}
       C -3.66913e-01 -1.62101e-01  6.64002e-02
       O  8.64648e-01  3.01930e-01 -1.73623e-01
       H -6.27436e-02  8.02149e-01 -6.34273e-01
       H -4.60589e-01 -1.00010e+00  7.75659e-01
       L  6.82402e+01 -2.74154e+00 -2.10128e+00
       L  3.81097e+00  2.13037e+01  9.84145e+00
6
# CELL(abcABC):  459.05226   459.05226   459.05226    90.00000    90.00000    90.00000  Step:          20  Bead:       0 x_centroid{angstrom}  cell{atomic_unit}
       C -3.67069e-01 -1.64420e-01  6.63005e-02
       O  8.64392e-01  3.03836e-01 -1.72559e-01
       H -5.98995e-02  7.99814e-01 -6.39767e-01
       H -4.57742e-01 -1.00074e+00  7.65561e-01
       L  6.86082e+01 -2.55260e+00 -2.04612e+00
       L  3.85567e+00  2.17899e+01  9.58566e+00
6
# CELL(abcABC):  459.05226   459.05226   459.05226    90.00000    90.00000    90.00000  Step:          21  Bead:       0 x_centroid{angstrom}  cell{atomic_unit}
       C -3.66534e-01 -1.66477e-01  6.63580e-02
       O  8.63476e-01  3.05593e-01 -1.71458e-01
       H -5.54309e-02  7.97408e-01 -6.45347e-01
       H -4.54238e-01 -1.00209e+00  7.53110e-01
       L  6.90102e+01 -2.34857e+00 -1.93984e+00
       L  3.81423e+00  2.22666e+01  9.25871e+00
6
# CELL(abcABC):  459.05226   459.05226   459.05226    90.00000    90.00000    90.00000  Step:          22  Bead:       0 x_centroid{angstrom}  cell{atomic_unit}
       C -3.65641e-01 -1.68717e-01  6.67220e-02
       O  8.62188e-01  3.07567e-01 -1.70459e-01
       H -5.01668e-02  7.93428e-01 -6.51923e-01
       H -4.49913e-01 -1.00308e+00  7.39657e-01
       L  6.94083e+01 -2.17673e+00 -1.82725e+00
       L  3.80823e+00  2.26920e+01  8.82011e+00
6
# CELL(abcABC):  459.05226   459.05226   459.05226    90.00000    90.00000    90.00000  Step:          23  Bead:       0 x_centroid{angstrom}  cell{atomic_unit}
       C -3.64620e-01 -1.70719e-01  6.68227e-02
       O  8.60915e-01  3.09496e-01 -1.69268e-01
       H -4.55894e-02  7.88013e-01 -6.57287e-01
       H -4.46622e-01 -1.00477e+00  7.25110e-01
       L  6.97807e+01 -1.93496e+00 -1.67909e+00
       L  3.74235e+00  2.30983e+01  8.32760e+00
6
# CELL(abcABC):  459.05226   459.05226   459.05226    90.00000    90.00000    90.00000  Step:          24  Bead:       0 x_centroid{angstrom}  cell{atomic_unit}
       C -3.63485e-01 -1.72511e-01  6.71196e-02
       O  8.59793e-01  3.11405e-01 -1.68275e-01
       H -4.45105e-02  7.81928e-01 -6.62497e-01
       H -4.43515e-01 -1.00798e+00  7.11222e-01
       L  7.01040e+01 -1.64161e+00 -1.55134e+00
       L  3.62489e+00  2.34379e+01  7.83381e+00
6
# CELL(abcABC):  459.05226   459.05226   459.05226    90.00000    90.00000    90.00000  Step:          25  Bead:       0 x_centroid{angstrom}  cell{atomic_unit}
       C -3.62529e-01 -1.73827e-01  6.75362e-02
       O  8.59158e-01  3.13093e-01 -1.67410e-01
       H -4.81512e-02  7.75329e-01 -6.68138e-01
       H -4.41245e-01 -1.01286e+00  6.98363e-01
       L  7.04035e+01 -1.32946e+00 -1.40155e+00
       L  3.40633e+00  2.37783e+01  7.30849e+00
6
# CELL(abcABC):  459.05226   459.05226   459.05226    90.00000    90.00000    90.00000  Step:          26  Bead:       0 x_centroid{angstrom}  cell{atomic_unit}
       C -3.61318e-01 -1.74891e-01  6.75254e-02
       O  8.58559e-01  3.14648e-01 -1.66481e-01
       H -5.53510e-02  7.71206e-01 -6.72524e-01
       H -4.38948e-01 -1.02112e+00  6.88384e-01
       L  7.06298e+01 -9.49807e-01 -1.25415e+00
       L  3.15514e+00  2.41166e+01  6.70546e+00
6
# CELL(abcABC):  459.05226   459.05226   459.05226    90.00000    90.00000    90.00000  Step:          27  Bead:       0 x_centroid{angstrom}  cell{atomic_unit}
       C -3.59930e-01 -1.75771e-01  6.71301e-02
       O  8.58001e-01  3.16096e-01 -1.65376e-01
       H -6.45753e-02  7.69014e-01 -6.78115e-01
       H -4.37347e-01 -1.03181e+00  6.81445e-01
       L  7.08276e+01 -6.22941e-01 -1.11803e+00
       L  2.86181e+00  2.44864e+01  6.03593e+00
6
# CELL(abcABC):  459.05226   459.05226   459.05226    90.00000    90.00000    90.00000  Step:          28  Bead:       0 x_centroid{angstrom}  cell{atomic_unit}
       C -3.58188e-01 -1.76437e-01  6.64162e-02
       O  8.57241e-01  3.17316e-01 -1.64207e-01
       H -7.50539e-02  7.69487e-01 -6.83912e-01
       H -4.35469e-01 -1.04408e+00  6.77473e-01
       L  7.09957e+01 -3.39334e-01 -9.42960e-01
       L  2.52018e+00  2.48758e+01  5.32285e+00
6
# CELL(abcABC):  459.05226   459.05226   459.05226    90.00000    90.00000    90.00000  Step:          29  Bead:       0 x_centroid{angstrom}  cell{atomic_unit}
       C -3.55943e-01 -1.76534e-01  6.56335e-02
       O  8.55941e-01  3.18144e-01 -1.63143e-01
       H -8.42606e-02  7.72410e-01 -6.90264e-01
       H -4.32279e-01 -1.05934e+00  6.76575e-01
       L  7.11440e+01 -6.46386e-02 -7.68310e-01
       L  2.18900e+00  2.52401e+01  4.58260e+00
6
# CELL(abcABC):  459.05226   459.05226   459.05226    90.00000    90.00000    90.00000  Step:          30  Bead:       0 x_centroid{angstrom}  cell{atomic_unit}
       C -3.53269e-01 -1.76608e-01  6.46213e-02
       O  8.54090e-01  3.18888e-01 -1.62097e-01
       H -9.13266e-02  7.77325e-01 -6.95703e-01
       H -4.27612e-01 -1.07556e+00  6.77786e-01
       L  7.13129e+01  2.37990e-01 -5.39183e-01
       L  1.86433e+00  2.56221e+01  3.78590e+00
6
# CELL(abcABC):  459.05226   459.05226   459.05226    90.00000    90.00000    90.00000  Step:          31  Bead:       0 x_centroid{angstrom}  cell{atomic_unit}
       C -3.50255e-01 -1.76693e-01  6.30515e-02
       O  8.51888e-01  3.19680e-01 -1.60625e-01
       H -9.72971e-02  7.82247e-01 -7.01078e-01
       H -4.22492e-01 -1.09242e+00  6.78797e-01
       L  7.14189e+01  5.18511e-01 -2.75077e-01
       L  1.56243e+00  2.60317e+01  2.98408e+00
6
# CELL(abcABC):  459.05226   459.05226   459.05226    90.00000    90.00000    90.00000  Step:          32  Bead:       0 x_centroid{angstrom}  cell{atomic_unit}
       C -3.46694e-01 -1.76635e-01  6.12458e-02
       O  8.49414e-01  3.20339e-01 -1.59040e-01
       H -1.05532e-01  7.85002e-01 -7.04717e-01
       H -4.17307e-01 -1.10669e+00  6.79118e-01
       L  7.14903e+01  7.68175e-01 -1.85394e-02
       L  1.26841e+00  2.64719e+01  2.12222e+00
6
# CELL(abcABC):  459.05226   459.05226   459.05226    90.00000    90.00000    90.00000  Step:          33  Bead:       0 x_centroid{angstrom}  cell{atomic_unit}
       C -3.42956e-01 -1.76391e-01  5.95823e-02
       O  8.46926e-01  3.20977e-01 -1.57569e-01
       H -1.16251e-01  7.84747e-01 -7.06700e-01
       H -4.11506e-01 -1.11981e+00  6.77875e-01
       L  7.15588e+01  9.87449e-01  3.13072e-01
       L  9.62326e-01  2.68685e+01  1.22977e+00
6
# CELL(abcABC):  459.05226   459.05226   459.05226    90.00000    90.00000    90.00000  Step:          34  Bead:       0 x_centroid{angstrom}  cell{atomic_unit}
       C -3.38872e-01 -1.76146e-01  5.80944e-02
       O  8.44351e-01  3.21738e-01 -1.56239e-01
       H -1.29266e-01  7.80183e-01 -7.05138e-01
       H -4.06124e-01 -1.13054e+00  6.73259e-01
       L  7.15752e+01  1.19842e+00  6.27896e-01
       L  6.59231e-01  2.71935e+01  3.31842e-01
6
# CELL(abcABC):  459.05226   459.05226   459.05226    90.00000    90.00000    90.00000  Step:          35  Bead:       0 x_centroid{angstrom}  cell{atomic_unit}
       C -3.34687e-01 -1.75619e-01  5.68306e-02
       O  8.41872e-01  3.22463e-01 -1.54960e-01
       H -1.43531e-01  7.69423e-01 -7.02901e-01
       H -4.02245e-01 -1.13780e+00  6.66071e-01
       L  7.16054e+01  1.40726e+00  9.01614e-01
       L  3.78661e-01  2.74379e+01 -4.78139e-01
6
# CELL(abcABC):  459.05226   459.05226   459.05226    90.00000    90.00000    90.00000  Step:          36  Bead:       0 x_centroid{angstrom}  cell{atomic_unit}
       C -3.29893e-01 -1.75160e-01  5.53286e-02
       O  8.38835e-01  3.23101e-01 -1.53390e-01
       H -1.56470e-01  7.56699e-01 -7.00515e-01
       H -3.98047e-01 -1.14085e+00  6.56952e-01
       L  7.16013e+01  1.53941e+00  1.17951e+00
       L  5.53217e-02  2.76373e+01 -1.31125e+00
6
# CELL(abcABC):  459.05226   459.05226   459.05226    90.00000    90.00000    90.00000  Step:          37  Bead:       0 x_centroid{angstrom}  cell{atomic_unit}
       C -3.24543e-01 -1.74300e-01  5.38122e-02
       O  8.34977e-01  3.23417e-01 -1.51616e-01
       H -1.66244e-01  7.42804e-01 -6.98164e-01
       H -3.90628e-01 -1.14236e+00  6.44805e-01
       L  7.16509e+01  1.64222e+00  1.45163e+00
       L -2.76756e-01  2.77770e+01 -2.11084e+00
6
# CELL(abcABC):  459.05226   459.05226   459.05226    90.00000    90.00000    90.00000  Step:          38  Bead:       0 x_centroid{angstrom}  cell{atomic_unit}
       C -3.18781e-01 -1.73496e-01  5.27016e-02
       O  8.30407e-01  3.23586e-01 -1.50049e-01
       H -1.70434e-01  7.30112e-01 -6.96784e-01
       H -3.82421e-01 -1.14206e+00  6.32103e-01
       L  7.17273e+01  1.75231e+00  1.66623e+00
       L -5.92823e-01  2.79103e+01 -2.92111e+00
6
# CELL(abcABC):  459.05226   459.05226   459.05226    90.00000    90.00000    90.00000  Step:          39  Bead:       0 x_centroid{angstrom}  cell{atomic_unit}
       C -3.12482e-01 -1.72889e-01  5.14707e-02
       O  8.25137e-01  3.23592e-01 -1.48219e-01
       H -1.70092e-01  7.20760e-01 -6.96555e-01
       H -3.74081e-01 -1.14018e+00  6.17762e-01
       L  7.18509e+01  1.83269e+00  1.87427e+00
       L -8.84214e-01  2.80787e+01 -3.62134e+00
6
# CELL(abcABC):  459.05226   459.05226   459.05226    90.00000    90.00000    90.00000  Step:          40  Bead:       0 x_centroid{angstrom}  cell{atomic_unit}
       C -3.06073e-01 -1.72123e-01  5.03022e-02
       O  8.19754e-01  3.23083e-01 -1.46422e-01
       H -1.69911e-01  7.16053e-01 -6.97244e-01
       H -3.65102e-01 -1.13668e+00  6.04069e-01
       L  7.20479e+01  1.89973e+00  2.09121e+00
       L -1.22274e+00  2.83204e+01 -4.24590e+00
6
# CELL(abcABC):  459.05226   459.05226   459.05226    90.00000    90.00000    90.00000  Step:          41  Bead:       0 x_centroid{angstrom}  cell{atomic_unit}
       C -2.99737e-01 -1.71525e-01  4.91864e-02
       O  8.14829e-01  3.22511e-01 -1.44703e-01
       H -1.75658e-01  7.12866e-01 -6.98546e-01
       H -3.56652e-01 -1.13176e+00  5.91608e-01
       L  7.22373e+01  2.00607e+00  2.24842e+00
       L -1.47960e+00  2.86304e+01 -4.81408e+00
6
# CELL(abcABC):  459.05226   459.05226   459.05226    90.00000    90.00000    90.00000  Step:          42  Bead:       0 x_centroid{angstrom}  cell{atomic_unit}
       C -2.93710e-01 -1.71039e-01  4.79451e-02
       O  8.10546e-01  3.21719e-01 -1.42940e-01
       H -1.88723e-01  7.11729e-01 -7.00453e-01
       H -3.47417e-01 -1.12405e+00  5.80504e-01
       L  7.24424e+01  2.03248e+00  2.41294e+00
       L -1.68828e+00  2.89527e+01 -5.29392e+00
6
# CELL(abcABC):  459.05226   459.05226   459.05226    90.00000    90.00000    90.00000  Step:          43  Bead:       0 x_centroid{angstrom}  cell{atomic_unit}
       C -2.87958e-01 -1.70300e-01  4.63484e-02
       O  8.06824e-01  3.20687e-01 -1.40937e-01
       H -2.08401e-01  7.12387e-01 -7.02883e-01
       H -3.37205e-01 -1.11731e+00  5.70345e-01
       L  7.26434e+01  2.05384e+00  2.54471e+00
       L -1.88357e+00  2.92869e+01 -5.76203e+00
6
# CELL(abcABC):  459.05226   459.05226   459.05226    90.00000    90.00000    90.00000  Step:          44  Bead:       0 x_centroid{angstrom}  cell{atomic_unit}
       C -2.82366e-01 -1.69252e-01  4.44192e-02
       O  8.03504e-01  3.19475e-01 -1.38820e-01
       H -2.33116e-01  7.14892e-01 -7.04831e-01
       H -3.26425e-01 -1.11327e+00  5.61849e-01
       L  7.28542e+01  2.01994e+00  2.63322e+00
       L -2.08590e+00  2.96740e+01 -6.18213e+00
6
# CELL(abcABC):  459.05226   459.05226   459.05226    90.00000    90.00000    90.00000  Step:          45  Bead:       0 x_centroid{angstrom}  cell{atomic_unit}
       C -2.76682e-01 -1.67876e-01  4.21253e-02
       O  8.00247e-01  3.18069e-01 -1.36598e-01
       H -2.59642e-01  7.18992e-01 -7.06921e-01
       H -3.16006e-01 -1.11165e+00  5.56211e-01
       L  7.31654e+01  1.94943e+00  2.68278e+00
       L -2.28237e+00  3.01236e+01 -6.60809e+00
6
# CELL(abcABC):  459.05226   459.05226   459.05226    90.00000    90.00000    90.00000  Step:          46  Bead:       0 x_centroid{angstrom}  cell{atomic_unit}
       C -2.70807e-01 -1.65862e-01  3.95965e-02
       O  7.96653e-01  3.16505e-01 -1.34466e-01
       H -2.83485e-01  7.23712e-01 -7.08299e-01
       H -3.05222e-01 -1.11576e+00  5.54079e-01
       L  7.35129e+01  1.85808e+00  2.72743e+00
       L -2.43099e+00  3.06155e+01 -7.00486e+00
6
# CELL(abcABC):  459.05226   459.05226   459.05226    90.00000    90.00000    90.00000  Step:          47  Bead:       0 x_centroid{angstrom}  cell{atomic_unit}
       C -2.65228e-01 -1.63777e-01  3.68635e-02
       O  7.93022e-01  3.15129e-01 -1.32264e-01
       H -3.04186e-01  7.30007e-01 -7.09893e-01
       H -2.93536e-01 -1.12529e+00  5.53444e-01
       L  7.39261e+01  1.75034e+00  2.73998e+00
       L -2.52207e+00  3.11549e+01 -7.30797e+00
6
# CELL(abcABC):  459.05226   459.05226   459.05226    90.00000    90.00000    90.00000  Step:          48  Bead:       0 x_centroid{angstrom}  cell{atomic_unit}
       C -2.59963e-01 -1.61001e-01  3.39154e-02
       O  7.89452e-01  3.13607e-01 -1.30020e-01
       H -3.23175e-01  7.35496e-01 -7.11984e-01
       H -2.80870e-01 -1.13993e+00  5.55172e-01
       L  7.44778e+01  1.60016e+00  2.71819e+00
       L -2.61336e+00  3.17038e+01 -7.52608e+00
6
# CELL(abcABC):  459.05226   459.05226   459.05226    90.00000    90.00000    90.00000  Step:          49  Bead:       0 x_centroid{angstrom}  cell{atomic_unit}
       C -2.54791e-01 -1.57842e-01  3.04621e-02
       O  7.86047e-01  3.12026e-01 -1.27367e-01
       H -3.43327e-01  7.40329e-01 -7.14655e-01
       H -2.68599e-01 -1.15752e+00  5.56984e-01
       L  7.51541e+01  1.42151e+00  2.66888e+00
       L -2.73738e+00  3.22855e+01 -7.65912e+00
6
# CELL(abcABC):  459.05226   459.05226   459.05226    90.00000    90.00000    90.00000  Step:          50  Bead:       0 x_centroid{angstrom}  cell{atomic_unit}
       C -2.49692e-01 -1.54556e-01  2.70067e-02
       O  7.82793e-01  3.10501e-01 -1.24656e-01
       H -3.65034e-01  7.42764e-01 -7.18283e-01
       H -2.56400e-01 -1.17515e+00  5.58842e-01
       L  7.59980e+01  1.25332e+00  2.61472e+00
       L -2.84991e+00  3.29081e+01 -7.76945e+00
6
# CELL(abcABC):  459.05226   459.05226   459.05226    90.00000    90.00000    90.00000  Step:          51  Bead:       0 x_centroid{angstrom}  cell{atomic_unit}
       C -2.44937e-01 -1.51252e-01  2.35283e-02
       O  7.80219e-01  3.09008e-01 -1.21787e-01
       H -3.91817e-01  7.43321e-01 -7.22652e-01
       H -2.45859e-01 -1.19162e+00  5.59182e-01
       L  7.69130e+01  1.10825e+00  2.54955e+00
       L -2.94969e+00  3.34919e+01 -7.83190e+00
6
# CELL(abcABC):  459.05226   459.05226   459.05226    90.00000    90.00000    90.00000  Step:          52  Bead:       0 x_centroid{angstrom}  cell{atomic_unit}
       C -2.40637e-01 -1.47829e-01  2.01686e-02
       O  7.78609e-01  3.07664e-01 -1.18829e-01
       H -4.25289e-01  7.39138e-01 -7.27544e-01
       H -2.38582e-01 -1.20715e+00  5.57219e-01
       L  7.79765e+01  9.77516e-01  2.44124e+00
       L -3.10077e+00  3.40933e+01 -7.82806e+00
6
# CELL(abcABC):  459.05226   459.05226   459.05226    90.00000    90.00000    90.00000  Step:          53  Bead:       0 x_centroid{angstrom}  cell{atomic_unit}
       C -2.36628e-01 -1.44674e-01  1.66259e-02
       O  7.77765e-01  3.06505e-01 -1.15679e-01
       H -4.64894e-01  7.32362e-01 -7.32191e-01
       H -2.33901e-01 -1.21978e+00  5.54090e-01
       L  7.91521e+01  7.90024e-01  2.34824e+00
       L -3.25632e+00  3.46799e+01 -7.74864e+00
6
# CELL(abcABC):  459.05226   459.05226   459.05226    90.00000    90.00000    90.00000  Step:          54  Bead:       0 x_centroid{angstrom}  cell{atomic_unit}
       C -2.33113e-01 -1.41713e-01  1.32511e-02
       O  7.77801e-01  3.05573e-01 -1.12543e-01
       H -5.10252e-01  7.22529e-01 -7.36506e-01
       H -2.31661e-01 -1.23067e+00  5.48844e-01
       L  8.04443e+01  5.72218e-01  2.21875e+00
       L -3.32512e+00  3.53089e+01 -7.62578e+00
6
# CELL(abcABC):  459.05226   459.05226   459.05226    90.00000    90.00000    90.00000  Step:          55  Bead:       0 x_centroid{angstrom}  cell{atomic_unit}
       C -2.29495e-01 -1.38422e-01  9.81961e-03
       O  7.78143e-01  3.04470e-01 -1.09280e-01
       H -5.61659e-01  7.09495e-01 -7.39995e-01
       H -2.29552e-01 -1.23957e+00  5.41394e-01
       L  8.19036e+01  3.32455e-01  2.05786e+00
       L -3.38756e+00  3.59693e+01 -7.42063e+00
6
# CELL(abcABC):  459.05226   459.05226   459.05226    90.00000    90.00000    90.00000  Step:          56  Bead:       0 x_centroid{angstrom}  cell{atomic_unit}
       C -2.25748e-01 -1.35258e-01  6.28357e-03
       O  7.78995e-01  3.03551e-01 -1.05927e-01
       H -6.21303e-01  6.93711e-01 -7.42862e-01
       H -2.28949e-01 -1.24715e+00  5.33135e-01
       L  8.35001e+01  6.52043e-02  1.91335e+00
       L -3.39920e+00  3.66909e+01 -7.19438e+00
6
# CELL(abcABC):  459.05226   459.05226   459.05226    90.00000    90.00000    90.00000  Step:          57  Bead:       0 x_centroid{angstrom}  cell{atomic_unit}
       C -2.21786e-01 -1.31784e-01  2.61976e-03
       O  7.80225e-01  3.02500e-01 -1.02504e-01
       H -6.86549e-01  6.74969e-01 -7.44298e-01
       H -2.31375e-01 -1.25338e+00  5.23846e-01
       L  8.52607e+01 -2.20451e-01  1.71611e+00
       L -3.43421e+00  3.74581e+01 -6.89848e+00
6
# CELL(abcABC):  459.05226   459.05226   459.05226    90.00000    90.00000    90.00000  Step:          58  Bead:       0 x_centroid{angstrom}  cell{atomic_unit}
       C -2.17730e-01 -1.28213e-01 -1.37664e-03
       O  7.81845e-01  3.01641e-01 -9.87748e-02
       H -7.57933e-01  6.50882e-01 -7.44971e-01
       H -2.35030e-01 -1.25848e+00  5.12889e-01
       L  8.71120e+01 -4.91377e-01  1.49048e+00
       L -3.45893e+00  3.82200e+01 -6.58192e+00
6
# CELL(abcABC):  459.05226   459.05226   459.05226    90.00000    90.00000    90.00000  Step:          59  Bead:       0 x_centroid{angstrom}  cell{atomic_unit}
       C -2.13656e-01 -1.24522e-01 -5.60226e-03
       O  7.83985e-01  3.00736e-01 -9.49171e-02
       H -8.34376e-01  6.23304e-01 -7.44012e-01
       H -2.42168e-01 -1.26082e+00  5.00995e-01
       L  8.90685e+01 -7.94020e-01  1.25729e+00
       L -3.45177e+00  3.90629e+01 -6.25067e+00
6
# CELL(abcABC):  459.05226   459.05226   459.05226    90.00000    90.00000    90.00000  Step:          60  Bead:       0 x_centroid{angstrom}  cell{atomic_unit}
       C -2.09780e-01 -1.21128e-01 -1.03474e-02
       O  7.86745e-01  3.00251e-01 -9.08442e-02
       H -9.15587e-01  5.89251e-01 -7.38848e-01
       H -2.52090e-01 -1.25984e+00  4.87667e-01
       L  9.11649e+01 -1.11747e+00  9.81111e-01
       L -3.46225e+00  4.00126e+01 -5.87325e+00
6
# CELL(abcABC):  459.05226   459.05226   459.05226    90.00000    90.00000    90.00000  Step:          61  Bead:       0 x_centroid{angstrom}  cell{atomic_unit}
       C -2.06695e-01 -1.17313e-01 -1.60437e-02
       O  7.90476e-01  2.99676e-01 -8.63344e-02
       H -9.98345e-01  5.49009e-01 -7.28688e-01
       H -2.66492e-01 -1.25638e+00  4.73668e-01
       L  9.32854e+01 -1.39315e+00  7.35586e-01
       L -3.44704e+00  4.10937e+01 -5.38364e+00
6
# CELL(abcABC):  459.05226   459.05226   459.05226    90.00000    90.00000    90.00000  Step:          62  Bead:       0 x_centroid{angstrom}  cell{atomic_unit}
       C -2.04657e-01 -1.13831e-01 -2.21358e-02
       O  7.95179e-01  2.99482e-01 -8.17679e-02
       H -1.08162e+00  5.02485e-01 -7.12389e-01
       H -2.83326e-01 -1.24868e+00  4.57366e-01
       L  9.54458e+01 -1.65705e+00  4.17052e-01
       L -3.42063e+00  4.21286e+01 -4.86147e+00
6
# CELL(abcABC):  459.05226   459.05226   459.05226    90.00000    90.00000    90.00000  Step:          63  Bead:       0 x_centroid{angstrom}  cell{atomic_unit}
       C -2.04468e-01 -1.10796e-01 -2.82800e-02
       O  8.01280e-01  2.99731e-01 -7.74213e-02
       H -1.16152e+00  4.50542e-01 -6.91527e-01
       H -3.03770e-01 -1.23736e+00  4.40583e-01
       L  9.76210e+01 -1.88355e+00  1.12732e-01
       L -3.31322e+00  4.32635e+01 -4.29718e+00
6
# CELL(abcABC):  459.05226   459.05226   459.05226    90.00000    90.00000    90.00000  Step:          64  Bead:       0 x_centroid{angstrom}  cell{atomic_unit}
       C -2.06307e-01 -1.08272e-01 -3.47054e-02
       O  8.08741e-01  3.00321e-01 -7.30829e-02
       H -1.23570e+00  3.93000e-01 -6.65061e-01
       H -3.27375e-01 -1.21977e+00  4.21689e-01
       L  9.98121e+01 -2.07950e+00 -2.13671e-01
       L -3.17706e+00  4.44164e+01 -3.73703e+00
6
# CELL(abcABC):  459.05226   459.05226   459.05226    90.00000    90.00000    90.00000  Step:          65  Bead:       0 x_centroid{angstrom}  cell{atomic_unit}
       C -2.10203e-01 -1.06496e-01 -4.15251e-02
       O  8.17321e-01  3.01379e-01 -6.87840e-02
       H -1.30201e+00  3.32536e-01 -6.33695e-01
       H -3.52119e-01 -1.19782e+00  4.03209e-01
       L  1.01968e+02 -2.28042e+00 -5.64558e-01
       L -2.96910e+00  4.56341e+01 -3.12694e+00
6
# CELL(abcABC):  459.05226   459.05226   459.05226    90.00000    90.00000    90.00000  Step:          66  Bead:       0 x_centroid{angstrom}  cell{atomic_unit}
       C -2.15190e-01 -1.05150e-01 -4.86968e-02