6
# CELL(abcABC):  459.05226   459.05226   459.05226    90.00000    90.00000    90.00000  Step:           0  Bead:       0 x_centroid{angstrom}  cell{atomic_unit}
       C -3.39887e-01 -1.13437e-01  8.06659e-02
       O  8.43483e-01  2.62672e-01 -1.81512e-01
       H -7.35799e-02  8.16467e-01 -6.61432e-01
       H -4.30016e-01 -9.65701e-01  7.62278e-01
       L  6.13458e+01  0.00000e+00  0.00000e+00
       L  0.00000e+00  8.59064e+00  0.00000e+00
6
# CELL(abcABC):  459.05226   459.05226   459.05226    90.00000    90.00000    90.00000  Step:           1  Bead:       0 x_centroid{angstrom}  cell{atomic_unit}
       C -3.37068e-01 -1.16190e-01  8.28076e-02
       O  8.41459e-01  2.64059e-01 -1.82849e-01
       H -7.39361e-02  8.14662e-01 -6.56662e-01
       H -4.31102e-01 -9.53173e-01  7.52898e-01
       L  6.11587e+01 -2.36798e-01  5.67215e-01
       L  1.50120e-01  8.91770e+00  3.68682e-03
6
# CELL(abcABC):  459.05226   459.05226   459.05226    90.00000    90.00000    90.00000  Step:           2  Bead:       0 x_centroid{angstrom}  cell{atomic_unit}
       C -3.34147e-01 -1.18576e-01  8.50257e-02
       O  8.39297e-01  2.65188e-01 -1.84317e-01
       H -7.38263e-02  8.13757e-01 -6.51732e-01
       H -4.31690e-01 -9.41792e-01  7.44540e-01
       L  6.09788e+01 -5.02908e-01  1.07854e+00
       L  3.25115e-01  9.27669e+00  2.60859e-02
6
# CELL(abcABC):  459.05226   459.05226   459.05226    90.00000    90.00000    90.00000  Step:           3  Bead:       0 x_centroid{angstrom}  cell{atomic_unit}
       C -3.31170e-01 -1.20683e-01  8.71078e-02
       O  8.37126e-01  2.66277e-01 -1.85706e-01
       H -7.39211e-02  8.13904e-01 -6.47933e-01
       H -4.32623e-01 -9.34211e-01  7.37698e-01
       L  6.08108e+01 -7.25538e-01  1.57123e+00
       L  4.95362e-01  9.65534e+00  4.86136e-02
6
# CELL(abcABC):  459.05226   459.05226   459.05226    90.00000    90.00000    90.00000  Step:           4  Bead:       0 x_centroid{angstrom}  cell{atomic_unit}
       C -3.28579e-01 -1.22125e-01  8.90562e-02
       O  8.35443e-01  2.67046e-01 -1.87087e-01
       H -7.74592e-02  8.14897e-01 -6.45219e-01
       H -4.33241e-01 -9.30333e-01  7.33455e-01
       L  6.06820e+01 -9.28710e-01  2.04324e+00
       L  6.30865e-01  1.00562e+01  5.77981e-03
6
# CELL(abcABC):  459.05226   459.05226   459.05226    90.00000    90.00000    90.00000  Step:           5  Bead:       0 x_centroid{angstrom}  cell{atomic_unit}
       C -3.26428e-01 -1.23395e-01  9.04980e-02
       O  8.34201e-01  2.67947e-01 -1.88409e-01
       H -8.29791e-02  8.16290e-01 -6.41738e-01
       H -4.33635e-01 -9.31008e-01  7.33587e-01
       L  6.05080e+01 -1.10911e+00  2.50158e+00
       L  7.86364e-01  1.04496e+01 -1.03401e-01
6
# CELL(abcABC):  459.05226   459.05226   459.05226    90.00000    90.00000    90.00000  Step:           6  Bead:       0 x_centroid{angstrom}  cell{atomic_unit}
       C -3.24561e-01 -1.24291e-01  9.18909e-02
       O  8.33166e-01  2.68748e-01 -1.89836e-01
       H -8.90458e-02  8.19202e-01 -6.39328e-01
       H -4.33389e-01 -9.36097e-01  7.37069e-01
       L  6.03662e+01 -1.27173e+00  2.91002e+00
       L  9.53949e-01  1.08657e+01 -2.19688e-01
6
# CELL(abcABC):  459.05226   459.05226   459.05226    90.00000    90.00000    90.00000  Step:           7  Bead:       0 x_centroid{angstrom}  cell{atomic_unit}
       C -3.23105e-01 -1.24987e-01  9.29994e-02
       O  8.32346e-01  2.69533e-01 -1.91190e-01
       H -9.60288e-02  8.22970e-01 -6.38481e-01
       H -4.30787e-01 -9.44179e-01  7.44322e-01
       L  6.02438e+01 -1.42874e+00  3.32671e+00
       L  1.15974e+00  1.12738e+01 -2.99895e-01
6
# CELL(abcABC):  459.05226   459.05226   459.05226    90.00000    90.00000    90.00000  Step:           8  Bead:       0 x_centroid{angstrom}  cell{atomic_unit}
       C -3.22282e-01 -1.25432e-01  9.39526e-02
       O  8.31850e-01  2.70409e-01 -1.92534e-01
       H -1.01280e-01  8.26545e-01 -6.37810e-01
       H -4.27540e-01 -9.56517e-01  7.53463e-01
       L  6.01600e+01 -1.54207e+00  3.68445e+00
       L  1.35865e+00  1.16912e+01 -3.51576e-01
6
# CELL(abcABC):  459.05226   459.05226   459.05226    90.00000    90.00000    90.00000  Step:           9  Bead:       0 x_centroid{angstrom}  cell{atomic_unit}
       C -3.21563e-01 -1.25831e-01  9.45678e-02
       O  8.31557e-01  2.71532e-01 -1.93693e-01
       H -1.06868e-01  8.27547e-01 -6.36566e-01
       H -4.25895e-01 -9.70772e-01  7.63135e-01
       L  6.00387e+01 -1.63935e+00  4.01805e+00
       L  1.51981e+00  1.21211e+01 -3.88702e-01
6
# CELL(abcABC):  459.05226   459.05226   459.05226    90.00000    90.00000    90.00000  Step:          10  Bead:       0 x_centroid{angstrom}  cell{atomic_unit}
       C -3.21223e-01 -1.25848e-01  9.52108e-02
       O  8.31562e-01  2.72449e-01 -1.94896e-01
       H -1.13243e-01  8.26843e-01 -6.33708e-01
       H -4.23690e-01 -9.84566e-01  7.71597e-01
       L  5.99904e+01 -1.76550e+00  4.29901e+00
       L  1.67666e+00  1.25292e+01 -4.60382e-01
6
# CELL(abcABC):  459.05226   459.05226   459.05226    90.00000    90.00000    90.00000  Step:          11  Bead:       0 x_centroid{angstrom}  cell{atomic_unit}
       C -3.21317e-01 -1.25715e-01  9.58304e-02
       O  8.31752e-01  2.73482e-01 -1.96054e-01
       H -1.18355e-01  8.24031e-01 -6.29823e-01
       H -4.20535e-01 -9.99833e-01  7.78586e-01
       L  5.99437e+01 -1.90501e+00  4.56639e+00
       L  1.79933e+00  1.28422e+01 -5.02708e-01
6
# CELL(abcABC):  459.05226   459.05226   459.05226    90.00000    90.00000    90.00000  Step:          12  Bead:       0 x_centroid{angstrom}  cell{atomic_unit}
       C -3.21320e-01 -1.25782e-01  9.65421e-02
       O  8.31736e-01  2.74806e-01 -1.97277e-01
       H -1.21964e-01  8.19455e-01 -6.25111e-01
       H -4.16683e-01 -1.01559e+00  7.84731e-01
       L  5.99402e+01 -1.98756e+00  4.76180e+00
       L  1.91498e+00  1.31550e+01 -5.66428e-01
6
# CELL(abcABC):  459.05226   459.05226   459.05226    90.00000    90.00000    90.00000  Step:          13  Bead:       0 x_centroid{angstrom}  cell{atomic_unit}
       C -3.21187e-01 -1.25998e-01  9.73913e-02
       O  8.31468e-01  2.76286e-01 -1.98441e-01
       H -1.24056e-01  8.11931e-01 -6.19867e-01
       H -4.11986e-01 -1.02908e+00  7.87828e-01
       L  5.99308e+01 -2.07550e+00  4.89134e+00
       L  2.02860e+00  1.33798e+01 -6.69992e-01
6
# CELL(abcABC):  459.05226   459.05226   459.05226    90.00000    90.00000    90.00000  Step:          14  Bead:       0 x_centroid{angstrom}  cell{atomic_unit}
       C -3.21269e-01 -1.26626e-01  9.86216e-02
       O  8.31338e-01  2.77912e-01 -1.99763e-01
       H -1.26493e-01  8.02838e-01 -6.14092e-01
       H -4.06569e-01 -1.03843e+00  7.88379e-01
       L  5.99432e+01 -2.07979e+00  5.00131e+00
       L  2.14321e+00  1.35889e+01 -7.94317e-01
6
# CELL(abcABC):  459.05226   459.05226   459.05226    90.00000    90.00000    90.00000  Step:          15  Bead:       0 x_centroid{angstrom}  cell{atomic_unit}
       C -3.21223e-01 -1.27202e-01  1.00137e-01
       O  8.30963e-01  2.79281e-01 -2.01101e-01
       H -1.28013e-01  7.93430e-01 -6.08715e-01
       H -3.99689e-01 -1.04396e+00  7.86181e-01
       L  5.99600e+01 -2.07167e+00  5.09579e+00
       L  2.20634e+00  1.37202e+01 -8.67357e-01
6
# CELL(abcABC):  459.05226   459.05226   459.05226    90.00000    90.00000    90.00000  Step:          16  Bead:       0 x_centroid{angstrom}  cell{atomic_unit}
       C -3.21141e-01 -1.28240e-01  1.01808e-01
       O  8.30474e-01  2.80748e-01 -2.02344e-01
       H -1.29223e-01  7.85729e-01 -6.05235e-01
       H -3.91747e-01 -1.04719e+00  7.82494e-01
       L  6.00389e+01 -2.13244e+00  5.16138e+00
       L  2.22101e+00  1.38295e+01 -9.10365e-01
6
# CELL(abcABC):  459.05226   459.05226   459.05226    90.00000    90.00000    90.00000  Step:          17  Bead:       0 x_centroid{angstrom}  cell{atomic_unit}
       C -3.20934e-01 -1.29605e-01  1.03692e-01
       O  8.29664e-01  2.82170e-01 -2.03487e-01
       H -1.29078e-01  7.80080e-01 -6.03515e-01
       H -3.81561e-01 -1.04787e+00  7.76509e-01
       L  6.01543e+01 -2.15703e+00  5.16293e+00
       L  2.19453e+00  1.38881e+01 -9.54991e-01
6
# CELL(abcABC):  459.05226   459.05226   459.05226    90.00000    90.00000    90.00000  Step:          18  Bead:       0 x_centroid{angstrom}  cell{atomic_unit}
       C -3.20362e-01 -1.31494e-01  1.05690e-01
       O  8.28532e-01  2.83570e-01 -2.04508e-01
       H -1.28317e-01  7.78779e-01 -6.03852e-01
       H -3.71183e-01 -1.04632e+00  7.69302e-01
       L  6.02330e+01 -2.12190e+00  5.11835e+00
       L  2.15130e+00  1.39329e+01 -1.03174e+00
6
# CELL(abcABC):  459.05226   459.05226   459.05226    90.00000    90.00000    90.00000  Step:          19  Bead:       0 x_centroid{angstrom}  cell{atomic_unit}
       C -3.19843e-01 -1.33857e-01  1.07963e-01
       O  8.27536e-01  2.84914e-01 -2.05371e-01
       H -1.28090e-01  7.81731e-01 -6.08231e-01
       H -3.61799e-01 -1.04252e+00  7.60382e-01
       L  6.03629e+01 -2.07536e+00  5.03394e+00
       L  2.04682e+00  1.39972e+01 -1.09417e+00
6
# CELL(abcABC):  459.05226   459.05226   459.05226    90.00000    90.00000    90.00000  Step:          20  Bead:       0 x_centroid{angstrom}  cell{atomic_unit}
       C -3.19093e-01 -1.36695e-01  1.10426e-01
       O  8.26515e-01  2.86277e-01 -2.06229e-01
       H -1.31382e-01  7.87779e-01 -6.14338e-01
       H -3.51218e-01 -1.03653e+00  7.50830e-01
       L  6.04932e+01 -1.93703e+00  4.94944e+00
       L  1.89119e+00  1.41323e+01 -1.13962e+00
6
# CELL(abcABC):  459.05226   459.05226   459.05226    90.00000    90.00000    90.00000  Step:          21  Bead:       0 x_centroid{angstrom}  cell{atomic_unit}
       C -3.18491e-01 -1.39453e-01  1.12875e-01
       O  8.25664e-01  2.87361e-01 -2.07116e-01
       H -1.37119e-01  7.97235e-01 -6.21600e-01
       H -3.39160e-01 -1.03050e+00  7.43118e-01
       L  6.06362e+01 -1.77011e+00  4.80113e+00
       L  1.77981e+00  1.42735e+01 -1.22979e+00
6
# CELL(abcABC):  459.05226   459.05226   459.05226    90.00000    90.00000    90.00000  Step:          22  Bead:       0 x_centroid{angstrom}  cell{atomic_unit}
       C -3.17581e-01 -1.42299e-01  1.15087e-01
       O  8.24791e-01  2.88467e-01 -2.07801e-01
       H -1.46609e-01  8.06740e-01 -6.29419e-01
       H -3.26655e-01 -1.02383e+00  7.35580e-01
       L  6.07385e+01 -1.55937e+00  4.61963e+00
       L  1.66979e+00  1.44253e+01 -1.30669e+00
6
# CELL(abcABC):  459.05226   459.05226   459.05226    90.00000    90.00000    90.00000  Step:          23  Bead:       0 x_centroid{angstrom}  cell{atomic_unit}
       C -3.16680e-01 -1.45147e-01  1.17295e-01
       O  8.23926e-01  2.89605e-01 -2.08647e-01
       H -1.55760e-01  8.17159e-01 -6.36394e-01
       H -3.14504e-01 -1.01856e+00  7.29887e-01
       L  6.08501e+01 -1.35713e+00  4.36924e+00
       L  1.52142e+00  1.45413e+01 -1.43765e+00
6
# CELL(abcABC):  459.05226   459.05226   459.05226    90.00000    90.00000    90.00000  Step:          24  Bead:       0 x_centroid{angstrom}  cell{atomic_unit}
       C -3.15700e-01 -1.47655e-01  1.19284e-01
       O  8.22890e-01  2.90776e-01 -2.09503e-01
       H -1.63366e-01  8.25126e-01 -6.41384e-01
       H -3.02134e-01 -1.01538e+00  7.24987e-01
       L  6.10047e+01 -1.19059e+00  4.06226e+00
       L  1.38453e+00  1.46320e+01 -1.55022e+00
6
# CELL(abcABC):  459.05226   459.05226   459.05226    90.00000    90.00000    90.00000  Step:          25  Bead:       0 x_centroid{angstrom}  cell{atomic_unit}
       C -3.15058e-01 -1.50088e-01  1.21235e-01
       O  8.21926e-01  2.92283e-01 -2.10544e-01
       H -1.69536e-01  8.31143e-01 -6.44554e-01
       H -2.88294e-01 -1.01646e+00  7.21654e-01
       L  6.11383e+01 -1.00417e+00  3.71760e+00
       L  1.20598e+00  1.47001e+01 -1.62054e+00
6
# CELL(abcABC):  459.05226   459.05226   459.05226    90.00000    90.00000    90.00000  Step:          26  Bead:       0 x_centroid{angstrom}  cell{atomic_unit}
       C -3.14225e-01 -1.52391e-01  1.23067e-01
       O  8.20720e-01  2.94156e-01 -2.11797e-01
       H -1.74235e-01  8.33199e-01 -6.43991e-01
       H -2.74342e-01 -1.02092e+00  7.19391e-01
       L  6.12921e+01 -8.05629e-01  3.35255e+00
       L  1.03036e+00  1.47070e+01 -1.67175e+00
6
# CELL(abcABC):  459.05226   459.05226   459.05226    90.00000    90.00000    90.00000  Step:          27  Bead:       0 x_centroid{angstrom}  cell{atomic_unit}
       C -3.13250e-01 -1.54447e-01  1.24392e-01
       O  8.19362e-01  2.96191e-01 -2.12889e-01
       H -1.77382e-01  8.31561e-01 -6.40672e-01
       H -2.61272e-01 -1.02713e+00  7.17875e-01
       L  6.14387e+01 -6.03480e-01  2.90301e+00
       L  8.84257e-01  1.46095e+01 -1.68865e+00
6
# CELL(abcABC):  459.05226   459.05226   459.05226    90.00000    90.00000    90.00000  Step:          28  Bead:       0 x_centroid{angstrom}  cell{atomic_unit}
       C -3.12279e-01 -1.56154e-01  1.25621e-01
       O  8.18052e-01  2.98385e-01 -2.14160e-01
       H -1.80834e-01  8.26450e-01 -6.35740e-01
       H -2.48603e-01 -1.03658e+00  7.18687e-01
       L  6.16235e+01 -4.09108e-01  2.46127e+00
       L  7.01852e-01  1.45218e+01 -1.66720e+00
6
# CELL(abcABC):  459.05226   459.05226   459.05226    90.00000    90.00000    90.00000  Step:          29  Bead:       0 x_centroid{angstrom}  cell{atomic_unit}
       C -3.11377e-01 -1.57591e-01  1.26714e-01
       O  8.17064e-01  3.00672e-01 -2.15494e-01
       H -1.86154e-01  8.18062e-01 -6.28780e-01
       H -2.38382e-01 -1.04737e+00  7.20124e-01
       L  6.18438e+01 -1.78038e-01  1.96284e+00
       L  5.58935e-01  1.43366e+01 -1.60324e+00
6
# CELL(abcABC):  459.05226   459.05226   459.05226    90.00000    90.00000    90.00000  Step:          30  Bead:       0 x_centroid{angstrom}  cell{atomic_unit}
       C -3.10516e-01 -1.58887e-01  1.27967e-01
       O  8.16278e-01  3.03194e-01 -2.17060e-01
       H -1.91756e-01  8.05794e-01 -6.20520e-01
       H -2.30570e-01 -1.05975e+00  7.22037e-01
       L  6.19812e+01  1.01175e-01  1.38484e+00
       L  4.28042e-01  1.41350e+01 -1.48735e+00
6
# CELL(abcABC):  459.05226   459.05226   459.05226    90.00000    90.00000    90.00000  Step:          31  Bead:       0 x_centroid{angstrom}  cell{atomic_unit}
       C -3.09422e-01 -1.60053e-01  1.29186e-01
       O  8.15419e-01  3.05731e-01 -2.18638e-01
       H -1.97957e-01  7.93339e-01 -6.12148e-01
       H -2.23743e-01 -1.07370e+00  7.24421e-01
       L  6.20798e+01  3.52089e-01  8.33559e-01
       L  2.78201e-01  1.39390e+01 -1.37187e+00
6
# CELL(abcABC):  459.05226   459.05226   459.05226    90.00000    90.00000    90.00000  Step:          32  Bead:       0 x_centroid{angstrom}  cell{atomic_unit}
       C -3.08112e-01 -1.61208e-01  1.30178e-01
       O  8.14361e-01  3.08150e-01 -2.20042e-01
       H -2.02835e-01  7.83344e-01 -6.05378e-01
       H -2.17600e-01 -1.08838e+00  7.28352e-01
       L  6.20871e+01  6.10979e-01  2.89540e-01
       L  1.36195e-01  1.37461e+01 -1.25165e+00
6
# CELL(abcABC):  459.05226   459.05226   459.05226    90.00000    90.00000    90.00000  Step:          33  Bead:       0 x_centroid{angstrom}  cell{atomic_unit}
       C -3.06668e-01 -1.62700e-01  1.31121e-01
       O  8.13098e-01  3.10611e-01 -2.21412e-01
       H -2.04919e-01  7.77555e-01 -6.00022e-01
       H -2.12587e-01 -1.10389e+00  7.33761e-01
       L  6.20664e+01  8.58604e-01 -2.60024e-01
       L -1.05602e-02  1.35561e+01 -1.16908e+00
6
# CELL(abcABC):  459.05226   459.05226   459.05226    90.00000    90.00000    90.00000  Step:          34  Bead:       0 x_centroid{angstrom}  cell{atomic_unit}
       C -3.05113e-01 -1.64071e-01  1.32008e-01
       O  8.11744e-01  3.12757e-01 -2.22649e-01
       H -2.06344e-01  7.75285e-01 -5.96542e-01
       H -2.08088e-01 -1.11941e+00  7.39617e-01
       L  6.20207e+01  1.10691e+00 -8.56816e-01
       L -1.78533e-01  1.34102e+01 -1.07540e+00
6
# CELL(abcABC):  459.05226   459.05226   459.05226    90.00000    90.00000    90.00000  Step:          35  Bead:       0 x_centroid{angstrom}  cell{atomic_unit}
       C -3.03611e-01 -1.65821e-01  1.32829e-01
       O  8.10508e-01  3.14927e-01 -2.23692e-01
       H -2.08379e-01  7.77176e-01 -5.95020e-01
       H -2.04271e-01 -1.13498e+00  7.45117e-01
       L  6.19759e+01  1.35252e+00 -1.42630e+00
       L -2.28822e-01  1.33208e+01 -9.75798e-01
6
# CELL(abcABC):  459.05226   459.05226   459.05226    90.00000    90.00000    90.00000  Step:          36  Bead:       0 x_centroid{angstrom}  cell{atomic_unit}
       C -3.02053e-01 -1.67868e-01  1.33761e-01
       O  8.09393e-01  3.17050e-01 -2.24758e-01
       H -2.12995e-01  7.81433e-01 -5.94668e-01
       H -2.00454e-01 -1.14866e+00  7.50821e-01
       L  6.18770e+01  1.59970e+00 -1.97361e+00
       L -2.45704e-01  1.32809e+01 -8.58464e-01
6
# CELL(abcABC):  459.05226   459.05226   459.05226    90.00000    90.00000    90.00000  Step:          37  Bead:       0 x_centroid{angstrom}  cell{atomic_unit}
       C -3.00234e-01 -1.70518e-01  1.35029e-01
       O  8.08366e-01  3.19219e-01 -2.25860e-01
       H -2.20207e-01  7.88228e-01 -5.95534e-01
       H -1.98590e-01 -1.15844e+00  7.54230e-01
       L  6.17974e+01  1.88130e+00 -2.39189e+00
       L -2.18680e-01  1.32620e+01 -7.30547e-01
6
# CELL(abcABC):  459.05226   459.05226   459.05226    90.00000    90.00000    90.00000  Step:          38  Bead:       0 x_centroid{angstrom}  cell{atomic_unit}
       C -2.98299e-01 -1.73586e-01  1.36390e-01
       O  8.07315e-01  3.21305e-01 -2.26896e-01
       H -2.27523e-01  7.94931e-01 -5.95509e-01
       H -1.97620e-01 -1.16182e+00  7.54497e-01
       L  6.16589e+01  2.10209e+00 -2.69408e+00
       L -1.37475e-01  1.32709e+01 -5.45928e-01
6
# CELL(abcABC):  459.05226   459.05226   459.05226    90.00000    90.00000    90.00000  Step:          39  Bead:       0 x_centroid{angstrom}  cell{atomic_unit}
       C -2.96520e-01 -1.76886e-01  1.38165e-01
       O  8.06423e-01  3.23321e-01 -2.28067e-01
       H -2.35403e-01  8.01678e-01 -5.95712e-01
       H -1.96779e-01 -1.16135e+00  7.52171e-01
       L  6.15539e+01  2.23669e+00 -2.98358e+00
       L -3.75909e-02  1.33260e+01 -3.46894e-01
6
# CELL(abcABC):  459.05226   459.05226   459.05226    90.00000    90.00000    90.00000  Step:          40  Bead:       0 x_centroid{angstrom}  cell{atomic_unit}
       C -2.94623e-01 -1.80464e-01  1.40197e-01
       O  8.05394e-01  3.25454e-01 -2.29428e-01
       H -2.41839e-01  8.06491e-01 -5.95748e-01
       H -1.96622e-01 -1.15746e+00  7.49627e-01
       L  6.14616e+01  2.33373e+00 -3.23320e+00
       L  5.66853e-02  1.33576e+01 -1.22076e-01
6
# CELL(abcABC):  459.05226   459.05226   459.05226    90.00000    90.00000    90.00000  Step:          41  Bead:       0 x_centroid{angstrom}  cell{atomic_unit}
       C -2.92640e-01 -1.84243e-01  1.42039e-01
       O  8.04094e-01  3.27523e-01 -2.30696e-01
       H -2.44904e-01  8.10804e-01 -5.93614e-01
       H -1.96567e-01 -1.14963e+00  7.45700e-01
       L  6.13736e+01  2.38530e+00 -3.46906e+00
       L  1.72033e-01  1.33777e+01  6.75734e-02
6
# CELL(abcABC):  459.05226   459.05226   459.05226    90.00000    90.00000    90.00000  Step:          42  Bead:       0 x_centroid{angstrom}  cell{atomic_unit}
       C -2.90573e-01 -1.88318e-01  1.44161e-01
       O  8.02554e-01  3.29690e-01 -2.32080e-01
       H -2.45246e-01  8.13798e-01 -5.91564e-01
       H -1.96443e-01 -1.13849e+00  7.40303e-01
       L  6.13193e+01  2.44257e+00 -3.64432e+00
       L  3.08084e-01  1.33748e+01  2.86611e-01
6
# CELL(abcABC):  459.05226   459.05226   459.05226    90.00000    90.00000    90.00000  Step:          43  Bead:       0 x_centroid{angstrom}  cell{atomic_unit}
       C -2.88259e-01 -1.92381e-01  1.46138e-01
       O  8.00607e-01  3.31805e-01 -2.33374e-01
       H -2.43135e-01  8.15439e-01 -5.88146e-01
       H -1.95257e-01 -1.12530e+00  7.33852e-01
       L  6.12452e+01  2.47095e+00 -3.82636e+00
       L  4.48077e-01  1.33768e+01  4.84104e-01
6
# CELL(abcABC):  459.05226   459.05226   459.05226    90.00000    90.00000    90.00000  Step:          44  Bead:       0 x_centroid{angstrom}  cell{atomic_unit}
       C -2.85766e-01 -1.96182e-01  1.47788e-01
       O  7.98383e-01  3.33683e-01 -2.34522e-01
       H -2.38292e-01  8.17315e-01 -5.83852e-01
       H -1.94559e-01 -1.11172e+00  7.28081e-01
       L  6.11712e+01  2.45778e+00 -3.95417e+00
       L  6.18891e-01  1.34313e+01  6.88718e-01
6
# CELL(abcABC):  459.05226   459.05226   459.05226    90.00000    90.00000    90.00000  Step:          45  Bead:       0 x_centroid{angstrom}  cell{atomic_unit}
       C -2.83201e-01 -1.99801e-01  1.49439e-01
       O  7.96037e-01  3.35507e-01 -2.35768e-01
       H -2.32751e-01  8.18318e-01 -5.77518e-01
       H -1.93440e-01 -1.09854e+00  7.21854e-01
       L  6.10614e+01  2.40821e+00 -4.10570e+00
       L  7.58894e-01  1.34586e+01  8.40570e-01
6
# CELL(abcABC):  459.05226   459.05226   459.05226    90.00000    90.00000    90.00000  Step:          46  Bead:       0 x_centroid{angstrom}  cell{atomic_unit}
       C -2.80759e-01 -2.03471e-01  1.50884e-01
       O  7.94107e-01  3.37418e-01 -2.36976e-01
       H -2.30906e-01  8.20477e-01 -5.71340e-01
       H -1.93745e-01 -1.08728e+00  7.17621e-01
       L  6.09377e+01  2.31738e+00 -4.22829e+00
       L  8.53327e-01  1.35039e+01  9.86304e-01
6
# CELL(abcABC):  459.05226   459.05226   459.05226    90.00000    90.00000    90.00000  Step:          47  Bead:       0 x_centroid{angstrom}  cell{atomic_unit}
       C -2.78644e-01 -2.06672e-01  1.51856e-01
       O  7.92704e-01  3.39229e-01 -2.37891e-01
       H -2.32907e-01  8.22745e-01 -5.65652e-01
       H -1.94608e-01 -1.08012e+00  7.14836e-01
       L  6.07183e+01  2.15744e+00 -4.30387e+00
       L  9.49621e-01  1.36260e+01  1.10684e+00
6
# CELL(abcABC):  459.05226   459.05226   459.05226    90.00000    90.00000    90.00000  Step:          48  Bead:       0 x_centroid{angstrom}  cell{atomic_unit}
       C -2.76723e-01 -2.09422e-01  1.52236e-01
       O  7.91714e-01  3.41042e-01 -2.38613e-01
       H -2.38753e-01  8.25198e-01 -5.58288e-01
       H -1.95813e-01 -1.07858e+00  7.14410e-01
       L  6.04335e+01  1.98854e+00 -4.33375e+00
       L  1.00741e+00  1.37761e+01  1.16374e+00
6
# CELL(abcABC):  459.05226   459.05226   459.05226    90.00000    90.00000    90.00000  Step:          49  Bead:       0 x_centroid{angstrom}  cell{atomic_unit}
       C -2.75119e-01 -2.11503e-01  1.51875e-01
       O  7.91028e-01  3.42604e-01 -2.39132e-01
       H -2.46944e-01  8.28386e-01 -5.48055e-01
       H -1.95682e-01 -1.08172e+00  7.16731e-01
       L  6.00967e+01  1.78660e+00 -4.37837e+00
       L  1.05319e+00  1.39255e+01  1.17071e+00
6
# CELL(abcABC):  459.05226   459.05226   459.05226    90.00000    90.00000    90.00000  Step:          50  Bead:       0 x_centroid{angstrom}  cell{atomic_unit}
       C -2.73975e-01 -2.13217e-01  1.51145e-01
       O  7.90627e-01  3.44183e-01 -2.39774e-01
       H -2.55672e-01  8.31259e-01 -5.35648e-01
       H -1.94064e-01 -1.08924e+00  7.23232e-01
       L  5.97266e+01  1.60800e+00 -4.40539e+00
       L  1.11356e+00  1.40939e+01  1.17445e+00
6
# CELL(abcABC):  459.05226   459.05226   459.05226    90.00000    90.00000    90.00000  Step:          51  Bead:       0 x_centroid{angstrom}  cell{atomic_unit}
       C -2.73281e-01 -2.14411e-01  1.50124e-01
       O  7.90155e-01  3.45619e-01 -2.40351e-01
       H -2.61571e-01  8.34604e-01 -5.23564e-01
       H -1.88764e-01 -1.10118e+00  7.32427e-01
       L  5.93453e+01  1.48897e+00 -4.35900e+00
       L  1.17815e+00  1.42694e+01  1.19866e+00
6
# CELL(abcABC):  459.05226   459.05226   459.05226    90.00000    90.00000    90.00000  Step:          52  Bead:       0 x_centroid{angstrom}  cell{atomic_unit}
       C -2.72517e-01 -2.14939e-01  1.49054e-01
       O  7.89359e-01  3.46830e-01 -2.41031e-01
       H -2.65665e-01  8.37384e-01 -5.11043e-01
       H -1.81015e-01 -1.11696e+00  7.43438e-01
       L  5.90294e+01  1.37014e+00 -4.28878e+00
       L  1.25522e+00  1.45021e+01  1.16051e+00
6
# CELL(abcABC):  459.05226   459.05226   459.05226    90.00000    90.00000    90.00000  Step:          53  Bead:       0 x_centroid{angstrom}  cell{atomic_unit}
       C -2.71819e-01 -2.15947e-01  1.48192e-01
       O  7.88355e-01  3.48321e-01 -2.41983e-01
       H -2.66245e-01  8.40894e-01 -4.97940e-01
       H -1.72673e-01 -1.13217e+00  7.55689e-01
       L  5.87343e+01  1.24191e+00 -4.20308e+00
       L  1.31456e+00  1.47158e+01  1.13727e+00
6
# CELL(abcABC):  459.05226   459.05226   459.05226    90.00000    90.00000    90.00000  Step:          54  Bead:       0 x_centroid{angstrom}  cell{atomic_unit}
       C -2.70806e-01 -2.16728e-01  1.47350e-01
       O  7.86971e-01  3.49779e-01 -2.42947e-01
       H -2.65160e-01  8.41239e-01 -4.84222e-01
       H -1.63743e-01 -1.14641e+00  7.67295e-01
       L  5.84747e+01  1.12650e+00 -4.11590e+00
       L  1.32347e+00  1.49403e+01  1.04404e+00
6
# CELL(abcABC):  459.05226   459.05226   459.05226    90.00000    90.00000    90.00000  Step:          55  Bead:       0 x_centroid{angstrom}  cell{atomic_unit}
       C -2.69941e-01 -2.17592e-01  1.46815e-01
       O  7.85787e-01  3.51371e-01 -2.44003e-01
       H -2.64137e-01  8.36906e-01 -4.70428e-01
       H -1.56123e-01 -1.15708e+00  7.76595e-01
       L  5.81751e+01  1.00892e+00 -3.94664e+00
       L  1.35866e+00  1.51134e+01  9.53063e-01
6
# CELL(abcABC):  459.05226   459.05226   459.05226    90.00000    90.00000    90.00000  Step:          56  Bead:       0 x_centroid{angstrom}  cell{atomic_unit}
       C -2.69467e-01 -2.18426e-01  1.46889e-01
       O  7.85165e-01  3.52946e-01 -2.45208e-01
       H -2.66686e-01  8.28632e-01 -4.56948e-01
       H -1.49169e-01 -1.16384e+00  7.81293e-01
       L  5.78114e+01  9.09285e-01 -3.75129e+00
       L  1.40041e+00  1.51720e+01  8.76721e-01
6
# CELL(abcABC):  459.05226   459.05226   459.05226    90.00000    90.00000    90.00000  Step:          57  Bead:       0 x_centroid{angstrom}  cell{atomic_unit}
       C -2.69237e-01 -2.19804e-01  1.47022e-01
       O  7.84938e-01  3.54691e-01 -2.46326e-01
       H -2.71143e-01  8.19920e-01 -4.42365e-01
       H -1.43662e-01 -1.16638e+00  7.82814e-01
       L  5.74256e+01  8.10536e-01 -3.56619e+00
       L  1.42160e+00  1.52122e+01  8.19150e-01
6
# CELL(abcABC):  459.05226   459.05226   459.05226    90.00000    90.00000    90.00000  Step:          58  Bead:       0 x_centroid{angstrom}  cell{atomic_unit}
       C -2.69140e-01 -2.21446e-01  1.46866e-01
       O  7.84687e-01  3.56424e-01 -2.47104e-01
       H -2.74914e-01  8.11879e-01 -4.27518e-01
       H -1.36901e-01 -1.16627e+00  7.82115e-01
       L  5.70718e+01  7.09511e-01 -3.38256e+00
       L  1.49766e+00  1.52917e+01  7.49234e-01
6
# CELL(abcABC):  459.05226   459.05226   459.05226    90.00000    90.00000    90.00000  Step:          59  Bead:       0 x_centroid{angstrom}  cell{atomic_unit}
       C -2.68764e-01 -2.23385e-01  1.46822e-01
       O  7.83927e-01  3.57929e-01 -2.47779e-01
       H -2.74893e-01  8.06818e-01 -4.14368e-01
       H -1.29189e-01 -1.16197e+00  7.80131e-01
       L  5.67303e+01  6.11205e-01 -3.18514e+00
       L  1.57207e+00  1.53416e+01  6.67804e-01
6
# CELL(abcABC):  459.05226   459.05226   459.05226    90.00000    90.00000    90.00000  Step:          60  Bead:       0 x_centroid{angstrom}  cell{atomic_unit}
       C -2.67866e-01 -2.25584e-01  1.47056e-01
       O  7.82459e-01  3.59129e-01 -2.48314e-01
       H -2.71254e-01  8.07731e-01 -4.04892e-01
       H -1.20111e-01 -1.15570e+00  7.76299e-01
       L  5.64589e+01  4.84308e-01 -2.96336e+00
       L  1.62857e+00  1.54074e+01  5.86214e-01
6
# CELL(abcABC):  459.05226   459.05226   459.05226    90.00000    90.00000    90.00000  Step:          61  Bead:       0 x_centroid{angstrom}  cell{atomic_unit}
       C -2.66329e-01 -2.27933e-01  1.47437e-01
       O  7.80529e-01  3.60020e-01 -2.48800e-01
       H -2.67247e-01  8.13603e-01 -3.98713e-01
       H -1.11663e-01 -1.14770e+00  7.73249e-01
       L  5.61817e+01  3.18077e-01 -2.75140e+00
       L  1.65515e+00  1.55357e+01  4.45809e-01
6
# CELL(abcABC):  459.05226   459.05226   459.05226    90.00000    90.00000    90.00000  Step:          62  Bead:       0 x_centroid{angstrom}  cell{atomic_unit}
       C -2.64761e-01 -2.30540e-01  1.47864e-01
       O  7.78591e-01  3.60794e-01 -2.49151e-01
       H -2.64140e-01  8.23080e-01 -3.93301e-01
       H -1.02539e-01 -1.13840e+00  7.68284e-01
       L  5.58644e+01  1.75495e-01 -2.52794e+00
       L  1.67442e+00  1.56774e+01  2.85759e-01
6
# CELL(abcABC):  459.05226   459.05226   459.05226    90.00000    90.00000    90.00000  Step:          63  Bead:       0 x_centroid{angstrom}  cell{atomic_unit}
       C -2.63007e-01 -2.33842e-01  1.48215e-01
       O  7.76810e-01  3.61834e-01 -2.49300e-01
       H -2.64884e-01  8.35309e-01 -3.88090e-01
       H -9.42075e-02 -1.12784e+00  7.61219e-01
       L  5.54967e+01  4.95259e-02 -2.26892e+00
       L  1.66489e+00  1.58984e+01  9.50437e-02
6
# CELL(abcABC):  459.05226   459.05226   459.05226    90.00000    90.00000    90.00000  Step:          64  Bead:       0 x_centroid{angstrom}  cell{atomic_unit}
       C -2.61456e-01 -2.37238e-01  1.48966e-01
       O  7.75495e-01  3.62962e-01 -2.49666e-01
       H -2.70054e-01  8.47528e-01 -3.85028e-01
       H -8.64428e-02 -1.11755e+00  7.54966e-01
       L  5.50901e+01 -9.13700e-02 -1.98468e+00
       L  1.69188e+00  1.61552e+01 -1.08172e-01
6
# CELL(abcABC):  459.05226   459.05226   459.05226    90.00000    90.00000    90.00000  Step:          65  Bead:       0 x_centroid{angstrom}  cell{atomic_unit}
       C -2.60458e-01 -2.40709e-01  1.49892e-01
       O  7.74997e-01  3.64266e-01 -2.50084e-01
       H -2.80133e-01  8.58169e-01 -3.81267e-01
       H -8.01641e-02 -1.10758e+00  7.46717e-01
       L  5.46835e+01 -2.20131e-01 -1.66044e+00
       L  1.75573e+00  1.63721e+01 -2.66485e-01
6
# CELL(abcABC):  459.05226   459.05226   459.05226    90.00000    90.00000    90.00000  Step:          66  Bead:       0 x_centroid{angstrom}  cell{atomic_unit}
       C -2.59648e-01 -2.44254e-01  1.50709e-01