6
# CELL(abcABC):  459.05226   459.05226   459.05226    90.00000    90.00000    90.00000  Step:           0  Bead:       0 x_centroid{angstrom}  cell{atomic_unit}
       C -3.39887e-01 -1.13437e-01  8.06659e-02
       O  8.43483e-01  2.62672e-01 -1.81512e-01
       H -7.35799e-02  8.16467e-01 -6.61432e-01
       H -4.30016e-01 -9.65701e-01  7.62278e-01
       L  6.13458e+01  0.00000e+00  0.00000e+00
       L  0.00000e+00  8.59064e+00  0.00000e+00
6
# CELL(abcABC):  459.05226   459.05226   459.05226    90.00000    90.00000    90.00000  Step:           1  Bead:       0 x_centroid{angstrom}  cell{atomic_unit}
       C -3.39023e-01 -1.11509e-01  8.26219e-02
       O  8.42040e-01  2.61545e-01 -1.83568e-01
       H -8.14562e-02  8.02186e-01 -6.56347e-01
       H -4.09406e-01 -9.56754e-01  7.67064e-01
       L  6.10041e+01  4.53378e-01 -2.94242e-01
       L  1.33553e-01  8.56827e+00 -7.21813e-01
6
# CELL(abcABC):  459.05226   459.05226   459.05226    90.00000    90.00000    90.00000  Step:           2  Bead:       0 x_centroid{angstrom}  cell{atomic_unit}
       C -3.38061e-01 -1.09413e-01  8.43869e-02
       O  8.40387e-01  2.60194e-01 -1.85510e-01
       H -8.75535e-02  7.89376e-01 -6.51624e-01
       H -3.88431e-01 -9.47678e-01  7.72737e-01
       L  6.06702e+01  8.71525e-01 -6.36791e-01
       L  2.85167e-01  8.54793e+00 -1.46588e+00
6
# CELL(abcABC):  459.05226   459.05226   459.05226    90.00000    90.00000    90.00000  Step:           3  Bead:       0 x_centroid{angstrom}  cell{atomic_unit}
       C -3.36980e-01 -1.07480e-01  8.64173e-02
       O  8.38502e-01  2.58792e-01 -1.87659e-01
       H -9.11505e-02  7.80687e-01 -6.48231e-01
       H -3.67685e-01 -9.39974e-01  7.79777e-01
       L  6.03145e+01  1.29626e+00 -9.09636e-01
       L  4.08681e-01  8.48406e+00 -2.14662e+00
6
# CELL(abcABC):  459.05226   459.05226   459.05226    90.00000    90.00000    90.00000  Step:           4  Bead:       0 x_centroid{angstrom}  cell{atomic_unit}
       C -3.35508e-01 -1.05629e-01  8.82081e-02
       O  8.36254e-01  2.57264e-01 -1.89631e-01
       H -9.26022e-02  7.76250e-01 -6.47246e-01
       H -3.47996e-01 -9.33531e-01  7.89267e-01
       L  6.00384e+01  1.71883e+00 -1.14428e+00
       L  5.13063e-01  8.42888e+00 -2.85928e+00
6
# CELL(abcABC):  459.05226   459.05226   459.05226    90.00000    90.00000    90.00000  Step:           5  Bead:       0 x_centroid{angstrom}  cell{atomic_unit}
       C -3.33797e-01 -1.03745e-01  9.03497e-02
       O  8.33948e-01  2.55600e-01 -1.91837e-01
       H -9.45316e-02  7.73789e-01 -6.48440e-01
       H -3.29761e-01 -9.27314e-01  8.00439e-01
       L  5.97885e+01  2.15466e+00 -1.36609e+00
       L  6.19860e-01  8.36236e+00 -3.52260e+00
6
# CELL(abcABC):  459.05226   459.05226   459.05226    90.00000    90.00000    90.00000  Step:           6  Bead:       0 x_centroid{angstrom}  cell{atomic_unit}
       C -3.32189e-01 -1.02431e-01  9.24659e-02
       O  8.32148e-01  2.54158e-01 -1.93862e-01
       H -1.01309e-01  7.74514e-01 -6.52251e-01
       H -3.13538e-01 -9.20995e-01  8.11638e-01
       L  5.95530e+01  2.56819e+00 -1.58091e+00
       L  7.73225e-01  8.30170e+00 -4.15349e+00
6
# CELL(abcABC):  459.05226   459.05226   459.05226    90.00000    90.00000    90.00000  Step:           7  Bead:       0 x_centroid{angstrom}  cell{atomic_unit}
       C -3.30980e-01 -1.01490e-01  9.48088e-02
       O  8.30984e-01  2.52916e-01 -1.95857e-01
       H -1.10709e-01  7.76749e-01 -6.58654e-01
       H -3.00015e-01 -9.14925e-01  8.22217e-01
       L  5.93251e+01  2.95407e+00 -1.81038e+00
       L  9.10283e-01  8.25983e+00 -4.70886e+00
6
# CELL(abcABC):  459.05226   459.05226   459.05226    90.00000    90.00000    90.00000  Step:           8  Bead:       0 x_centroid{angstrom}  cell{atomic_unit}
       C -3.29782e-01 -1.00572e-01  9.77637e-02
       O  8.30250e-01  2.51664e-01 -1.98192e-01
       H -1.23580e-01  7.79095e-01 -6.66043e-01
       H -2.89749e-01 -9.08503e-01  8.31853e-01
       L  5.91198e+01  3.30052e+00 -2.01842e+00
       L  1.09532e+00  8.22926e+00 -5.21804e+00
6
# CELL(abcABC):  459.05226   459.05226   459.05226    90.00000    90.00000    90.00000  Step:           9  Bead:       0 x_centroid{angstrom}  cell{atomic_unit}
       C -3.28666e-01 -9.99958e-02  1.00930e-01
       O  8.29667e-01  2.50686e-01 -2.00686e-01
       H -1.36335e-01  7.81407e-01 -6.74291e-01
       H -2.81082e-01 -9.02311e-01  8.42322e-01
       L  5.89866e+01  3.65074e+00 -2.23417e+00
       L  1.29824e+00  8.16524e+00 -5.67840e+00
6
# CELL(abcABC):  459.05226   459.05226   459.05226    90.00000    90.00000    90.00000  Step:          10  Bead:       0 x_centroid{angstrom}  cell{atomic_unit}
       C -3.27517e-01 -9.96645e-02  1.04230e-01
       O  8.29049e-01  2.49999e-01 -2.03250e-01
       H -1.46740e-01  7.82810e-01 -6.82362e-01
       H -2.74657e-01 -8.96899e-01  8.52131e-01
       L  5.89597e+01  4.02298e+00 -2.43127e+00
       L  1.48258e+00  8.05931e+00 -6.13997e+00
6
# CELL(abcABC):  459.05226   459.05226   459.05226    90.00000    90.00000    90.00000  Step:          11  Bead:       0 x_centroid{angstrom}  cell{atomic_unit}
       C -3.25914e-01 -9.91813e-02  1.07741e-01
       O  8.27874e-01  2.49478e-01 -2.06072e-01
       H -1.51280e-01  7.82273e-01 -6.89809e-01
       H -2.70678e-01 -8.93923e-01  8.62829e-01
       L  5.90028e+01  4.34448e+00 -2.57001e+00
       L  1.66900e+00  7.86019e+00 -6.54483e+00
6
# CELL(abcABC):  459.05226   459.05226   459.05226    90.00000    90.00000    90.00000  Step:          12  Bead:       0 x_centroid{angstrom}  cell{atomic_unit}
       C -3.24141e-01 -9.87784e-02  1.11354e-01
       O  8.26435e-01  2.49246e-01 -2.09026e-01
       H -1.51204e-01  7.78337e-01 -6.96466e-01
       H -2.69150e-01 -8.91153e-01  8.73553e-01
       L  5.90433e+01  4.66423e+00 -2.65763e+00
       L  1.82034e+00  7.64368e+00 -6.86883e+00
6
# CELL(abcABC):  459.05226   459.05226   459.05226    90.00000    90.00000    90.00000  Step:          13  Bead:       0 x_centroid{angstrom}  cell{atomic_unit}
       C -3.22334e-01 -9.87635e-02  1.15194e-01
       O  8.24888e-01  2.49556e-01 -2.12146e-01
       H -1.48623e-01  7.69928e-01 -7.02022e-01
       H -2.68792e-01 -8.87859e-01  8.83063e-01
       L  5.90989e+01  4.90626e+00 -2.73215e+00
       L  1.91310e+00  7.41029e+00 -7.16073e+00
6
# CELL(abcABC):  459.05226   459.05226   459.05226    90.00000    90.00000    90.00000  Step:          14  Bead:       0 x_centroid{angstrom}  cell{atomic_unit}
       C -3.20609e-01 -9.92585e-02  1.19182e-01
       O  8.23577e-01  2.50490e-01 -2.15456e-01
       H -1.46128e-01  7.58602e-01 -7.06136e-01
       H -2.71109e-01 -8.85418e-01  8.92391e-01
       L  5.92071e+01  5.09845e+00 -2.81320e+00
       L  1.96900e+00  7.14251e+00 -7.42787e+00
6
# CELL(abcABC):  459.05226   459.05226   459.05226    90.00000    90.00000    90.00000  Step:          15  Bead:       0 x_centroid{angstrom}  cell{atomic_unit}
       C -3.18723e-01 -9.99521e-02  1.23573e-01
       O  8.22296e-01  2.51763e-01 -2.19019e-01
       H -1.44174e-01  7.44717e-01 -7.09281e-01
       H -2.75288e-01 -8.83416e-01  8.99883e-01
       L  5.93521e+01  5.24250e+00 -2.78062e+00
       L  1.98709e+00  6.89811e+00 -7.66165e+00
6
# CELL(abcABC):  459.05226   459.05226   459.05226    90.00000    90.00000    90.00000  Step:          16  Bead:       0 x_centroid{angstrom}  cell{atomic_unit}
       C -3.17214e-01 -1.00687e-01  1.28217e-01
       O  8.21682e-01  2.53121e-01 -2.22714e-01
       H -1.45194e-01  7.30658e-01 -7.11824e-01
       H -2.82553e-01 -8.82053e-01  9.05786e-01
       L  5.94070e+01  5.36686e+00 -2.73985e+00
       L  2.00831e+00  6.59828e+00 -7.79714e+00
6
# CELL(abcABC):  459.05226   459.05226   459.05226    90.00000    90.00000    90.00000  Step:          17  Bead:       0 x_centroid{angstrom}  cell{atomic_unit}
       C -3.15819e-01 -1.01983e-01  1.33173e-01
       O  8.21422e-01  2.54835e-01 -2.26664e-01
       H -1.48861e-01  7.17273e-01 -7.14880e-01
       H -2.91375e-01 -8.80312e-01  9.12510e-01
       L  5.94198e+01  5.43071e+00 -2.71219e+00
       L  1.97202e+00  6.29662e+00 -7.86646e+00
6
# CELL(abcABC):  459.05226   459.05226   459.05226    90.00000    90.00000    90.00000  Step:          18  Bead:       0 x_centroid{angstrom}  cell{atomic_unit}
       C -3.14652e-01 -1.03322e-01  1.38053e-01
       O  8.21340e-01  2.56407e-01 -2.30508e-01
       H -1.52605e-01  7.06244e-01 -7.19601e-01
       H -3.00211e-01 -8.78184e-01  9.20077e-01
       L  5.94633e+01  5.48978e+00 -2.68866e+00
       L  1.89253e+00  6.06634e+00 -7.84998e+00
6
# CELL(abcABC):  459.05226   459.05226   459.05226    90.00000    90.00000    90.00000  Step:          19  Bead:       0 x_centroid{angstrom}  cell{atomic_unit}
       C -3.13432e-01 -1.04758e-01  1.43018e-01
       O  8.21128e-01  2.57814e-01 -2.34476e-01
       H -1.54546e-01  6.99822e-01 -7.25648e-01
       H -3.09416e-01 -8.76878e-01  9.29893e-01
       L  5.95403e+01  5.47609e+00 -2.66186e+00
       L  1.76495e+00  5.86447e+00 -7.77792e+00
6
# CELL(abcABC):  459.05226   459.05226   459.05226    90.00000    90.00000    90.00000  Step:          20  Bead:       0 x_centroid{angstrom}  cell{atomic_unit}
       C -3.11996e-01 -1.06330e-01  1.47969e-01
       O  8.20675e-01  2.59189e-01 -2.38460e-01
       H -1.54576e-01  6.96481e-01 -7.33676e-01
       H -3.19303e-01 -8.76557e-01  9.42095e-01
       L  5.96363e+01  5.46021e+00 -2.65593e+00
       L  1.66707e+00  5.75914e+00 -7.63984e+00
6
# CELL(abcABC):  459.05226   459.05226   459.05226    90.00000    90.00000    90.00000  Step:          21  Bead:       0 x_centroid{angstrom}  cell{atomic_unit}
       C -3.10679e-01 -1.08268e-01  1.53236e-01
       O  8.20056e-01  2.60643e-01 -2.42605e-01
       H -1.51933e-01  6.95031e-01 -7.44956e-01
       H -3.27776e-01 -8.75027e-01  9.56285e-01
       L  5.97081e+01  5.44141e+00 -2.67488e+00
       L  1.51941e+00  5.66770e+00 -7.40992e+00
6
# CELL(abcABC):  459.05226   459.05226   459.05226    90.00000    90.00000    90.00000  Step:          22  Bead:       0 x_centroid{angstrom}  cell{atomic_unit}
       C -3.09319e-01 -1.10384e-01  1.58570e-01
       O  8.19388e-01  2.61926e-01 -2.46675e-01
       H -1.49148e-01  6.96821e-01 -7.57873e-01
       H -3.36093e-01 -8.71915e-01  9.70052e-01
       L  5.97562e+01  5.40749e+00 -2.68691e+00
       L  1.33599e+00  5.59360e+00 -7.05378e+00
6
# CELL(abcABC):  459.05226   459.05226   459.05226    90.00000    90.00000    90.00000  Step:          23  Bead:       0 x_centroid{angstrom}  cell{atomic_unit}
       C -3.08004e-01 -1.12256e-01  1.63988e-01
       O  8.18773e-01  2.63055e-01 -2.50720e-01
       H -1.47206e-01  6.98733e-01 -7.70741e-01
       H -3.43865e-01 -8.69364e-01  9.82363e-01
       L  5.97551e+01  5.30989e+00 -2.69621e+00
       L  1.21451e+00  5.54781e+00 -6.64078e+00
6
# CELL(abcABC):  459.05226   459.05226   459.05226    90.00000    90.00000    90.00000  Step:          24  Bead:       0 x_centroid{angstrom}  cell{atomic_unit}
       C -3.07270e-01 -1.14272e-01  1.69404e-01
       O  8.18856e-01  2.64247e-01 -2.54772e-01
       H -1.49880e-01  6.99427e-01 -7.82699e-01
       H -3.51204e-01 -8.64856e-01  9.93786e-01
       L  5.97347e+01  5.18804e+00 -2.64530e+00
       L  1.11382e+00  5.49668e+00 -6.13959e+00
6
# CELL(abcABC):  459.05226   459.05226   459.05226    90.00000    90.00000    90.00000  Step:          25  Bead:       0 x_centroid{angstrom}  cell{atomic_unit}
       C -3.07088e-01 -1.16139e-01  1.74876e-01
       O  8.19336e-01  2.65267e-01 -2.58893e-01
       H -1.55686e-01  6.99368e-01 -7.92880e-01
       H -3.55056e-01 -8.58621e-01  1.00383e+00
       L  5.96777e+01  5.03492e+00 -2.54147e+00
       L  9.55332e-01  5.40900e+00 -5.60243e+00
6
# CELL(abcABC):  459.05226   459.05226   459.05226    90.00000    90.00000    90.00000  Step:          26  Bead:       0 x_centroid{angstrom}  cell{atomic_unit}
       C -3.06941e-01 -1.18035e-01  1.80153e-01
       O  8.19758e-01  2.66404e-01 -2.63090e-01
       H -1.61749e-01  6.97524e-01 -8.00194e-01
       H -3.57328e-01 -8.52092e-01  1.01448e+00
       L  5.95888e+01  4.81199e+00 -2.36243e+00
       L  8.05578e-01  5.38723e+00 -5.02193e+00
6
# CELL(abcABC):  459.05226   459.05226   459.05226    90.00000    90.00000    90.00000  Step:          27  Bead:       0 x_centroid{angstrom}  cell{atomic_unit}
       C -3.06826e-01 -1.19972e-01  1.85185e-01
       O  8.20002e-01  2.67606e-01 -2.67253e-01
       H -1.65602e-01  6.93719e-01 -8.05008e-01
       H -3.58576e-01 -8.44113e-01  1.02495e+00
       L  5.95021e+01  4.51516e+00 -2.16000e+00
       L  6.57966e-01  5.38016e+00 -4.36545e+00
6
# CELL(abcABC):  459.05226   459.05226   459.05226    90.00000    90.00000    90.00000  Step:          28  Bead:       0 x_centroid{angstrom}  cell{atomic_unit}
       C -3.06772e-01 -1.21912e-01  1.89657e-01
       O  8.19881e-01  2.68850e-01 -2.71124e-01
       H -1.65581e-01  6.89414e-01 -8.08146e-01
       H -3.57190e-01 -8.36283e-01  1.03578e+00
       L  5.93812e+01  4.22460e+00 -2.01369e+00
       L  5.31173e-01  5.36681e+00 -3.66871e+00
6
# CELL(abcABC):  459.05226   459.05226   459.05226    90.00000    90.00000    90.00000  Step:          29  Bead:       0 x_centroid{angstrom}  cell{atomic_unit}
       C -3.07042e-01 -1.23802e-01  1.94067e-01
       O  8.19725e-01  2.69996e-01 -2.75180e-01
       H -1.62138e-01  6.84319e-01 -8.07998e-01
       H -3.54822e-01 -8.26660e-01  1.04699e+00
       L  5.93207e+01  3.90781e+00 -1.84085e+00
       L  3.94753e-01  5.31573e+00 -3.00206e+00
6
# CELL(abcABC):  459.05226   459.05226   459.05226    90.00000    90.00000    90.00000  Step:          30  Bead:       0 x_centroid{angstrom}  cell{atomic_unit}
       C -3.07614e-01 -1.25792e-01  1.97992e-01
       O  8.19605e-01  2.71177e-01 -2.79018e-01
       H -1.57466e-01  6.77890e-01 -8.05155e-01
       H -3.50657e-01 -8.15016e-01  1.05785e+00
       L  5.92259e+01  3.51375e+00 -1.67008e+00
       L  2.39564e-01  5.28740e+00 -2.32983e+00
6
# CELL(abcABC):  459.05226   459.05226   459.05226    90.00000    90.00000    90.00000  Step:          31  Bead:       0 x_centroid{angstrom}  cell{atomic_unit}
       C -3.08275e-01 -1.27573e-01  2.01716e-01
       O  8.19322e-01  2.72221e-01 -2.82778e-01
       H -1.51901e-01  6.71237e-01 -8.00282e-01
       H -3.43718e-01 -8.03485e-01  1.06777e+00
       L  5.91321e+01  3.13715e+00 -1.44872e+00
       L  1.11710e-01  5.22565e+00 -1.60567e+00
6
# CELL(abcABC):  459.05226   459.05226   459.05226    90.00000    90.00000    90.00000  Step:          32  Bead:       0 x_centroid{angstrom}  cell{atomic_unit}
       C -3.09303e-01 -1.29146e-01  2.05393e-01
       O  8.19325e-01  2.73114e-01 -2.86684e-01
       H -1.47202e-01  6.64936e-01 -7.93202e-01
       H -3.36080e-01 -7.92378e-01  1.07835e+00
       L  5.89861e+01  2.76624e+00 -1.20224e+00
       L -1.39613e-02  5.14180e+00 -8.92944e-01
6
# CELL(abcABC):  459.05226   459.05226   459.05226    90.00000    90.00000    90.00000  Step:          33  Bead:       0 x_centroid{angstrom}  cell{atomic_unit}
       C -3.10849e-01 -1.30534e-01  2.09058e-01
       O  8.19820e-01  2.73838e-01 -2.90731e-01
       H -1.44692e-01  6.58505e-01 -7.85148e-01
       H -3.27836e-01 -7.80655e-01  1.09035e+00
       L  5.88095e+01  2.40768e+00 -9.92240e-01
       L -1.72952e-01  5.06585e+00 -1.52806e-01
6
# CELL(abcABC):  459.05226   459.05226   459.05226    90.00000    90.00000    90.00000  Step:          34  Bead:       0 x_centroid{angstrom}  cell{atomic_unit}
       C -3.12923e-01 -1.31751e-01  2.12860e-01
       O  8.20723e-01  2.74387e-01 -2.94881e-01
       H -1.44731e-01  6.52686e-01 -7.76853e-01
       H -3.17262e-01 -7.68794e-01  1.10214e+00
       L  5.86694e+01  2.01911e+00 -8.27094e-01
       L -3.18369e-01  4.98514e+00  5.64746e-01
6
# CELL(abcABC):  459.05226   459.05226   459.05226    90.00000    90.00000    90.00000  Step:          35  Bead:       0 x_centroid{angstrom}  cell{atomic_unit}
       C -3.15084e-01 -1.32883e-01  2.16658e-01
       O  8.21674e-01  2.74751e-01 -2.99110e-01
       H -1.46289e-01  6.47837e-01 -7.68264e-01
       H -3.04839e-01 -7.56014e-01  1.11496e+00
       L  5.84435e+01  1.69660e+00 -6.99841e-01
       L -4.67554e-01  4.91916e+00  1.30190e+00
6
# CELL(abcABC):  459.05226   459.05226   459.05226    90.00000    90.00000    90.00000  Step:          36  Bead:       0 x_centroid{angstrom}  cell{atomic_unit}
       C -3.17371e-01 -1.34367e-01  2.20299e-01
       O  8.22633e-01  2.75150e-01 -3.03240e-01
       H -1.47082e-01  6.45448e-01 -7.60444e-01
       H -2.91773e-01 -7.42089e-01  1.12881e+00
       L  5.80936e+01  1.33975e+00 -5.92549e-01
       L -5.75646e-01  4.91326e+00  2.11986e+00
6
# CELL(abcABC):  459.05226   459.05226   459.05226    90.00000    90.00000    90.00000  Step:          37  Bead:       0 x_centroid{angstrom}  cell{atomic_unit}
       C -3.19740e-01 -1.36007e-01  2.23757e-01
       O  8.23634e-01  2.75497e-01 -3.07291e-01
       H -1.48141e-01  6.45435e-01 -7.52617e-01
       H -2.78088e-01 -7.27809e-01  1.14358e+00
       L  5.76889e+01  8.83338e-01 -4.90810e-01
       L -6.80512e-01  4.95586e+00  2.91145e+00
6
# CELL(abcABC):  459.05226   459.05226   459.05226    90.00000    90.00000    90.00000  Step:          38  Bead:       0 x_centroid{angstrom}  cell{atomic_unit}
       C -3.22036e-01 -1.37558e-01  2.27242e-01
       O  8.24530e-01  2.75621e-01 -3.11346e-01
       H -1.48598e-01  6.48437e-01 -7.44744e-01
       H -2.64205e-01 -7.14089e-01  1.15809e+00
       L  5.72716e+01  4.78888e-01 -4.52662e-01
       L -8.07558e-01  4.97318e+00  3.71036e+00
6
# CELL(abcABC):  459.05226   459.05226   459.05226    90.00000    90.00000    90.00000  Step:          39  Bead:       0 x_centroid{angstrom}  cell{atomic_unit}
       C -3.24193e-01 -1.38993e-01  2.31103e-01
       O  8.25268e-01  2.75639e-01 -3.15555e-01
       H -1.47645e-01  6.51409e-01 -7.39029e-01
       H -2.50852e-01 -7.00043e-01  1.17277e+00
       L  5.67944e+01  1.11421e-01 -4.41325e-01
       L -9.02573e-01  4.96276e+00  4.47084e+00
6
# CELL(abcABC):  459.05226   459.05226   459.05226    90.00000    90.00000    90.00000  Step:          40  Bead:       0 x_centroid{angstrom}  cell{atomic_unit}
       C -3.26205e-01 -1.40504e-01  2.34882e-01
       O  8.25558e-01  2.75666e-01 -3.19579e-01
       H -1.43484e-01  6.55891e-01 -7.34852e-01
       H -2.35362e-01 -6.86751e-01  1.18704e+00
       L  5.63179e+01 -2.39481e-01 -4.25889e-01
       L -9.63227e-01  4.96109e+00  5.19272e+00
6
# CELL(abcABC):  459.05226   459.05226   459.05226    90.00000    90.00000    90.00000  Step:          41  Bead:       0 x_centroid{angstrom}  cell{atomic_unit}
       C -3.27766e-01 -1.42337e-01  2.39057e-01
       O  8.25399e-01  2.75913e-01 -3.23693e-01
       H -1.37872e-01  6.59523e-01 -7.31734e-01
       H -2.19534e-01 -6.72209e-01  1.19913e+00
       L  5.58248e+01 -6.93205e-01 -3.99806e-01
       L -1.01298e+00  4.93898e+00  5.79644e+00
6
# CELL(abcABC):  459.05226   459.05226   459.05226    90.00000    90.00000    90.00000  Step:          42  Bead:       0 x_centroid{angstrom}  cell{atomic_unit}
       C -3.29112e-01 -1.44316e-01  2.43444e-01
       O  8.25211e-01  2.76400e-01 -3.27751e-01
       H -1.33645e-01  6.62000e-01 -7.27564e-01
       H -2.04437e-01 -6.58570e-01  1.20679e+00
       L  5.52785e+01 -1.13679e+00 -3.38127e-01
       L -1.03735e+00  4.89814e+00  6.31145e+00
6
# CELL(abcABC):  459.05226   459.05226   459.05226    90.00000    90.00000    90.00000  Step:          43  Bead:       0 x_centroid{angstrom}  cell{atomic_unit}
       C -3.30666e-01 -1.46193e-01  2.48011e-01
       O  8.25246e-01  2.77150e-01 -3.31722e-01
       H -1.29358e-01  6.61296e-01 -7.23665e-01
       H -1.90418e-01 -6.47093e-01  1.21116e+00
       L  5.46703e+01 -1.61735e+00 -2.23138e-01
       L -1.07365e+00  4.79230e+00  6.79463e+00
6
# CELL(abcABC):  459.05226   459.05226   459.05226    90.00000    90.00000    90.00000  Step:          44  Bead:       0 x_centroid{angstrom}  cell{atomic_unit}
       C -3.32155e-01 -1.47715e-01  2.52870e-01
       O  8.25438e-01  2.77923e-01 -3.35657e-01
       H -1.25632e-01  6.57404e-01 -7.20596e-01
       H -1.79088e-01 -6.36931e-01  1.21239e+00
       L  5.39907e+01 -2.16583e+00 -1.54706e-01
       L -1.05074e+00  4.61477e+00  7.21339e+00
6
# CELL(abcABC):  459.05226   459.05226   459.05226    90.00000    90.00000    90.00000  Step:          45  Bead:       0 x_centroid{angstrom}  cell{atomic_unit}
       C -3.33457e-01 -1.49001e-01  2.58111e-01
       O  8.25627e-01  2.78830e-01 -3.39763e-01
       H -1.23482e-01  6.50290e-01 -7.18771e-01
       H -1.68351e-01 -6.28462e-01  1.21307e+00
       L  5.32933e+01 -2.67131e+00 -8.57862e-02
       L -1.03138e+00  4.35278e+00  7.55143e+00
6
# CELL(abcABC):  459.05226   459.05226   459.05226    90.00000    90.00000    90.00000  Step:          46  Bead:       0 x_centroid{angstrom}  cell{atomic_unit}
       C -3.34629e-01 -1.50209e-01  2.63171e-01
       O  8.25640e-01  2.79778e-01 -3.43684e-01
       H -1.20306e-01  6.43341e-01 -7.17396e-01
       H -1.57367e-01 -6.21743e-01  1.21347e+00
       L  5.25045e+01 -3.10182e+00  2.48614e-02
       L -9.79216e-01  3.99666e+00  7.76799e+00
6
# CELL(abcABC):  459.05226   459.05226   459.05226    90.00000    90.00000    90.00000  Step:          47  Bead:       0 x_centroid{angstrom}  cell{atomic_unit}
       C -3.35385e-01 -1.51156e-01  2.68416e-01
       O  8.25448e-01  2.80704e-01 -3.47638e-01
       H -1.16936e-01  6.35963e-01 -7.18550e-01
       H -1.48195e-01 -6.17365e-01  1.21475e+00
       L  5.16141e+01 -3.52667e+00  1.40604e-01
       L -9.92172e-01  3.64766e+00  7.89424e+00
6
# CELL(abcABC):  459.05226   459.05226   459.05226    90.00000    90.00000    90.00000  Step:          48  Bead:       0 x_centroid{angstrom}  cell{atomic_unit}
       C -3.36205e-01 -1.52092e-01  2.73623e-01
       O  8.25221e-01  2.81666e-01 -3.51355e-01
       H -1.11191e-01  6.30003e-01 -7.23466e-01
       H -1.40067e-01 -6.15137e-01  1.21652e+00
       L  5.06500e+01 -3.90994e+00  2.81679e-01
       L -9.26368e-01  3.33399e+00  7.94520e+00
6
# CELL(abcABC):  459.05226   459.05226   459.05226    90.00000    90.00000    90.00000  Step:          49  Bead:       0 x_centroid{angstrom}  cell{atomic_unit}
       C -3.36849e-01 -1.52692e-01  2.78960e-01
       O  8.24887e-01  2.82401e-01 -3.55233e-01
       H -1.05083e-01  6.25172e-01 -7.30169e-01
       H -1.32666e-01 -6.14402e-01  1.22109e+00
       L  4.96232e+01 -4.31855e+00  4.08953e-01
       L -8.71126e-01  2.95498e+00  7.96551e+00
6
# CELL(abcABC):  459.05226   459.05226   459.05226    90.00000    90.00000    90.00000  Step:          50  Bead:       0 x_centroid{angstrom}  cell{atomic_unit}
       C -3.37257e-01 -1.53373e-01  2.84093e-01
       O  8.24206e-01  2.83092e-01 -3.58958e-01
       H -9.62981e-02  6.22942e-01 -7.39344e-01
       H -1.25260e-01 -6.14619e-01  1.22820e+00
       L  4.85300e+01 -4.67392e+00  5.00772e-01
       L -7.25455e-01  2.58650e+00  7.92926e+00
6
# CELL(abcABC):  459.05226   459.05226   459.05226    90.00000    90.00000    90.00000  Step:          51  Bead:       0 x_centroid{angstrom}  cell{atomic_unit}
       C -3.37758e-01 -1.54049e-01  2.88762e-01
       O  8.23314e-01  2.83688e-01 -3.62124e-01
       H -8.47067e-02  6.24040e-01 -7.52934e-01
       H -1.16163e-01 -6.16778e-01  1.23639e+00
       L  4.73134e+01 -4.98749e+00  6.10076e-01
       L -5.63522e-01  2.25136e+00  7.87493e+00
6
# CELL(abcABC):  459.05226   459.05226   459.05226    90.00000    90.00000    90.00000  Step:          52  Bead:       0 x_centroid{angstrom}  cell{atomic_unit}
       C -3.38320e-01 -1.54935e-01  2.93278e-01
       O  8.22220e-01  2.84375e-01 -3.65017e-01
       H -6.83599e-02  6.27184e-01 -7.70616e-01
       H -1.07815e-01 -6.19940e-01  1.24620e+00
       L  4.60503e+01 -5.25859e+00  6.94997e-01
       L -4.46175e-01  1.91895e+00  7.76107e+00
6
# CELL(abcABC):  459.05226   459.05226   459.05226    90.00000    90.00000    90.00000  Step:          53  Bead:       0 x_centroid{angstrom}  cell{atomic_unit}
       C -3.38890e-01 -1.56054e-01  2.98089e-01
       O  8.20886e-01  2.85154e-01 -3.67884e-01
       H -4.86398e-02  6.31454e-01 -7.92862e-01
       H -9.89149e-02 -6.22943e-01  1.25664e+00
       L  4.47108e+01 -5.48388e+00  7.72037e-01
       L -3.26424e-01  1.58657e+00  7.63527e+00
6
# CELL(abcABC):  459.05226   459.05226   459.05226    90.00000    90.00000    90.00000  Step:          54  Bead:       0 x_centroid{angstrom}  cell{atomic_unit}
       C -3.39660e-01 -1.57218e-01  3.03268e-01
       O  8.19646e-01  2.85984e-01 -3.70732e-01
       H -2.65952e-02  6.36710e-01 -8.18547e-01
       H -9.13971e-02 -6.27165e-01  1.26586e+00
       L  4.33313e+01 -5.68733e+00  8.38777e-01
       L -2.21178e-01  1.18012e+00  7.48380e+00
6
# CELL(abcABC):  459.05226   459.05226   459.05226    90.00000    90.00000    90.00000  Step:          55  Bead:       0 x_centroid{angstrom}  cell{atomic_unit}
       C -3.40773e-01 -1.58649e-01  3.08838e-01
       O  8.18739e-01  2.87032e-01 -3.73590e-01
       H -4.68868e-03  6.41622e-01 -8.47909e-01
       H -8.48962e-02 -6.31329e-01  1.27425e+00
       L  4.18318e+01 -5.85331e+00  1.02163e+00
       L -1.06357e-01  7.46323e-01  7.23272e+00
6
# CELL(abcABC):  459.05226   459.05226   459.05226    90.00000    90.00000    90.00000  Step:          56  Bead:       0 x_centroid{angstrom}  cell{atomic_unit}
       C -3.42473e-01 -1.60246e-01  3.14941e-01
       O  8.18170e-01  2.88302e-01 -3.76682e-01
       H  1.94586e-02  6.44926e-01 -8.78694e-01
       H -7.89628e-02 -6.35476e-01  1.28151e+00
       L  4.02311e+01 -5.93267e+00  1.19191e+00
       L  5.23718e-02  2.92976e-01  6.87672e+00
6
# CELL(abcABC):  459.05226   459.05226   459.05226    90.00000    90.00000    90.00000  Step:          57  Bead:       0 x_centroid{angstrom}  cell{atomic_unit}
       C -3.44420e-01 -1.62034e-01  3.21558e-01
       O  8.17701e-01  2.89869e-01 -3.79967e-01
       H  4.55622e-02  6.46647e-01 -9.11234e-01
       H -7.36207e-02 -6.40485e-01  1.28743e+00
       L  3.85886e+01 -5.98097e+00  1.38993e+00
       L  2.22756e-01 -1.78219e-01  6.49354e+00
6
# CELL(abcABC):  459.05226   459.05226   459.05226    90.00000    90.00000    90.00000  Step:          58  Bead:       0 x_centroid{angstrom}  cell{atomic_unit}
       C -3.46753e-01 -1.63927e-01  3.28630e-01
       O  8.17422e-01  2.91510e-01 -3.83319e-01
       H  7.26394e-02  6.48063e-01 -9.46916e-01
       H -6.76412e-02 -6.45180e-01  1.29220e+00
       L  3.68401e+01 -5.90557e+00  1.57822e+00
       L  4.30931e-01 -6.66325e-01  6.02918e+00
6
# CELL(abcABC):  459.05226   459.05226   459.05226    90.00000    90.00000    90.00000  Step:          59  Bead:       0 x_centroid{angstrom}  cell{atomic_unit}
       C -3.49754e-01 -1.66146e-01  3.36350e-01
       O  8.17480e-01  2.93485e-01 -3.87157e-01
       H  1.02063e-01  6.48529e-01 -9.82712e-01
       H -6.13047e-02 -6.50352e-01  1.29719e+00
       L  3.49619e+01 -5.75666e+00  1.69164e+00
       L  6.21356e-01 -1.16964e+00  5.43663e+00
6
# CELL(abcABC):  459.05226   459.05226   459.05226    90.00000    90.00000    90.00000  Step:          60  Bead:       0 x_centroid{angstrom}  cell{atomic_unit}
       C -3.53153e-01 -1.68674e-01  3.44284e-01
       O  8.17556e-01  2.95778e-01 -3.91108e-01
       H  1.34109e-01  6.47544e-01 -1.01767e+00
       H -5.30938e-02 -6.55422e-01  1.30061e+00
       L  3.30229e+01 -5.57897e+00  1.80204e+00
       L  7.97166e-01 -1.74183e+00  4.81044e+00
6
# CELL(abcABC):  459.05226   459.05226   459.05226    90.00000    90.00000    90.00000  Step:          61  Bead:       0 x_centroid{angstrom}  cell{atomic_unit}
       C -3.56285e-01 -1.71264e-01  3.52170e-01
       O  8.17432e-01  2.98058e-01 -3.95074e-01
       H  1.66910e-01  6.46108e-01 -1.05285e+00
       H -4.55901e-02 -6.59102e-01  1.30502e+00
       L  3.09656e+01 -5.38460e+00  1.91237e+00
       L  9.79791e-01 -2.33631e+00  4.24960e+00
6
# CELL(abcABC):  459.05226   459.05226   459.05226    90.00000    90.00000    90.00000  Step:          62  Bead:       0 x_centroid{angstrom}  cell{atomic_unit}
       C -3.59525e-01 -1.73792e-01  3.59969e-01
       O  8.17110e-01  3.00188e-01 -3.98955e-01
       H  2.02335e-01  6.44089e-01 -1.08729e+00
       H -3.61887e-02 -6.60580e-01  1.30845e+00
       L  2.87666e+01 -5.08842e+00  1.92780e+00
       L  1.13650e+00 -2.98240e+00  3.63299e+00
6
# CELL(abcABC):  459.05226   459.05226   459.05226    90.00000    90.00000    90.00000  Step:          63  Bead:       0 x_centroid{angstrom}  cell{atomic_unit}
       C -3.62921e-01 -1.76382e-01  3.67457e-01
       O  8.16691e-01  3.02117e-01 -4.02655e-01
       H  2.38845e-01  6.42657e-01 -1.12168e+00
       H -2.44247e-02 -6.58745e-01  1.31267e+00
       L  2.65430e+01 -4.78829e+00  1.94418e+00
       L  1.26929e+00 -3.56384e+00  3.00456e+00
6
# CELL(abcABC):  459.05226   459.05226   459.05226    90.00000    90.00000    90.00000  Step:          64  Bead:       0 x_centroid{angstrom}  cell{atomic_unit}
       C -3.66302e-01 -1.78760e-01  3.74300e-01
       O  8.16142e-01  3.03697e-01 -4.06079e-01
       H  2.75348e-01  6.42834e-01 -1.15261e+00
       H -1.07356e-02 -6.55514e-01  1.31674e+00
       L  2.42277e+01 -4.47246e+00  1.98667e+00
       L  1.37596e+00 -4.16216e+00  2.37612e+00
6
# CELL(abcABC):  459.05226   459.05226   459.05226    90.00000    90.00000    90.00000  Step:          65  Bead:       0 x_centroid{angstrom}  cell{atomic_unit}
       C -3.69586e-01 -1.80977e-01  3.80360e-01
       O  8.15446e-01  3.04875e-01 -4.09237e-01
       H  3.10646e-01  6.44705e-01 -1.18045e+00
       H  5.42176e-03 -6.49542e-01  1.32282e+00
       L  2.18334e+01 -4.15153e+00  2.01749e+00
       L  1.42751e+00 -4.68963e+00  1.75183e+00
6
# CELL(abcABC):  459.05226   459.05226   459.05226    90.00000    90.00000    90.00000  Step:          66  Bead:       0 x_centroid{angstrom}  cell{atomic_unit}
       C -3.72541e-01 -1.83073e-01  3.85698e-01