6
# CELL(abcABC):  459.05226   459.05226   459.05226    90.00000    90.00000    90.00000  Step:           0  Bead:       0 x_centroid{angstrom}  cell{atomic_unit}
       C -3.39887e-01 -1.13437e-01  8.06659e-02
       O  8.43483e-01  2.62672e-01 -1.81512e-01
       H -7.35799e-02  8.16467e-01 -6.61432e-01
       H -4.30016e-01 -9.65701e-01  7.62278e-01
       L  6.13458e+01  0.00000e+00  0.00000e+00
       L  0.00000e+00  8.59064e+00  0.00000e+00
6
# CELL(abcABC):  459.05226   459.05226   459.05226    90.00000    90.00000    90.00000  Step:           1  Bead:       0 x_centroid{angstrom}  cell{atomic_unit}
       C -3.39043e-01 -1.13926e-01  8.13589e-02
       O  8.42989e-01  2.63248e-01 -1.82007e-01
       H -6.98091e-02  8.13690e-01 -6.58020e-01
       H -4.36177e-01 -9.66267e-01  7.58386e-01
       L  6.13115e+01 -2.57599e-01  1.73571e-01
       L  3.68600e-01  8.89075e+00 -5.18208e-02
6
# CELL(abcABC):  459.05226   459.05226   459.05226    90.00000    90.00000    90.00000  Step:           2  Bead:       0 x_centroid{angstrom}  cell{atomic_unit}
       C -3.38174e-01 -1.14399e-01  8.21105e-02
       O  8.42544e-01  2.63742e-01 -1.82568e-01
       H -6.70683e-02  8.12050e-01 -6.55229e-01
       H -4.42377e-01 -9.66862e-01  7.55452e-01
       L  6.12655e+01 -5.06304e-01  3.23066e-01
       L  7.21160e-01  9.18816e+00 -2.40749e-02
6
# CELL(abcABC):  459.05226   459.05226   459.05226    90.00000    90.00000    90.00000  Step:           3  Bead:       0 x_centroid{angstrom}  cell{atomic_unit}
       C -3.37456e-01 -1.14953e-01  8.29368e-02
       O  8.42409e-01  2.64160e-01 -1.83166e-01
       H -6.70700e-02  8.11549e-01 -6.53155e-01
       H -4.48947e-01 -9.66396e-01  7.52962e-01
       L  6.12551e+01 -8.02964e-01  4.29134e-01
       L  1.01793e+00  9.47836e+00 -7.51945e-04
6
# CELL(abcABC):  459.05226   459.05226   459.05226    90.00000    90.00000    90.00000  Step:           4  Bead:       0 x_centroid{angstrom}  cell{atomic_unit}
       C -3.36726e-01 -1.15497e-01  8.36495e-02
       O  8.42264e-01  2.64554e-01 -1.83609e-01
       H -6.76384e-02  8.11440e-01 -6.52610e-01
       H -4.54903e-01 -9.66039e-01  7.50845e-01
       L  6.12157e+01 -1.11049e+00  5.33984e-01
       L  1.29476e+00  9.75731e+00  7.15604e-02
6
# CELL(abcABC):  459.05226   459.05226   459.05226    90.00000    90.00000    90.00000  Step:           5  Bead:       0 x_centroid{angstrom}  cell{atomic_unit}
       C -3.36143e-01 -1.16082e-01  8.46915e-02
       O  8.42195e-01  2.64916e-01 -1.84327e-01
       H -6.88524e-02  8.12935e-01 -6.52410e-01
       H -4.59634e-01 -9.66310e-01  7.49573e-01
       L  6.11412e+01 -1.36072e+00  6.34598e-01
       L  1.54198e+00  1.00077e+01  9.39190e-02
6
# CELL(abcABC):  459.05226   459.05226   459.05226    90.00000    90.00000    90.00000  Step:           6  Bead:       0 x_centroid{angstrom}  cell{atomic_unit}
       C -3.35718e-01 -1.16578e-01  8.57951e-02
       O  8.42254e-01  2.65296e-01 -1.85052e-01
       H -7.03092e-02  8.13356e-01 -6.52416e-01
       H -4.64244e-01 -9.66896e-01  7.47879e-01
       L  6.10069e+01 -1.52758e+00  7.15987e-01
       L  1.77543e+00  1.02756e+01  1.20669e-01
6
# CELL(abcABC):  459.05226   459.05226   459.05226    90.00000    90.00000    90.00000  Step:           7  Bead:       0 x_centroid{angstrom}  cell{atomic_unit}
       C -3.35387e-01 -1.16879e-01  8.69762e-02
       O  8.42318e-01  2.65495e-01 -1.85843e-01
       H -7.14890e-02  8.13643e-01 -6.53561e-01
       H -4.68059e-01 -9.66837e-01  7.47433e-01
       L  6.08311e+01 -1.72223e+00  7.97168e-01
       L  2.04107e+00  1.05890e+01  1.60287e-01
6
# CELL(abcABC):  459.05226   459.05226   459.05226    90.00000    90.00000    90.00000  Step:           8  Bead:       0 x_centroid{angstrom}  cell{atomic_unit}
       C -3.35316e-01 -1.17236e-01  8.80791e-02
       O  8.42405e-01  2.65669e-01 -1.86553e-01
       H -7.09327e-02  8.15915e-01 -6.55415e-01
       H -4.70918e-01 -9.67672e-01  7.47344e-01
       L  6.07124e+01 -1.91543e+00  9.05918e-01
       L  2.29415e+00  1.08983e+01  1.87718e-01
6
# CELL(abcABC):  459.05226   459.05226   459.05226    90.00000    90.00000    90.00000  Step:           9  Bead:       0 x_centroid{angstrom}  cell{atomic_unit}
       C -3.35239e-01 -1.17440e-01  8.87819e-02
       O  8.42335e-01  2.65731e-01 -1.87045e-01
       H -6.92704e-02  8.18549e-01 -6.56828e-01
       H -4.72416e-01 -9.68964e-01  7.48155e-01
       L  6.05867e+01 -2.06738e+00  9.77065e-01
       L  2.48663e+00  1.12286e+01  1.77029e-01
6
# CELL(abcABC):  459.05226   459.05226   459.05226    90.00000    90.00000    90.00000  Step:          10  Bead:       0 x_centroid{angstrom}  cell{atomic_unit}
       C -3.35417e-01 -1.17513e-01  8.94144e-02
       O  8.42304e-01  2.65889e-01 -1.87519e-01
       H -6.59982e-02  8.19369e-01 -6.58240e-01
       H -4.73110e-01 -9.71507e-01  7.49505e-01
       L  6.04514e+01 -2.24691e+00  1.05276e+00
       L  2.65916e+00  1.15788e+01  1.83213e-01
6
# CELL(abcABC):  459.05226   459.05226   459.05226    90.00000    90.00000    90.00000  Step:          11  Bead:       0 x_centroid{angstrom}  cell{atomic_unit}
       C -3.36020e-01 -1.17428e-01  9.02298e-02
       O  8.42594e-01  2.66081e-01 -1.88184e-01
       H -6.33536e-02  8.19205e-01 -6.58629e-01
       H -4.73172e-01 -9.75515e-01  7.50709e-01
       L  6.03099e+01 -2.39434e+00  1.11896e+00
       L  2.80423e+00  1.19454e+01  1.66645e-01
6
# CELL(abcABC):  459.05226   459.05226   459.05226    90.00000    90.00000    90.00000  Step:          12  Bead:       0 x_centroid{angstrom}  cell{atomic_unit}
       C -3.36568e-01 -1.17225e-01  9.09660e-02
       O  8.42971e-01  2.66338e-01 -1.88844e-01
       H -6.26087e-02  8.15778e-01 -6.58009e-01
       H -4.73382e-01 -9.78717e-01  7.51801e-01
       L  6.01543e+01 -2.51748e+00  1.09752e+00
       L  2.98825e+00  1.22895e+01  1.74543e-01
6
# CELL(abcABC):  459.05226   459.05226   459.05226    90.00000    90.00000    90.00000  Step:          13  Bead:       0 x_centroid{angstrom}  cell{atomic_unit}
       C -3.37457e-01 -1.16762e-01  9.16183e-02
       O  8.43723e-01  2.66409e-01 -1.89415e-01
       H -6.41951e-02  8.11659e-01 -6.56420e-01
       H -4.73138e-01 -9.81379e-01  7.51537e-01
       L  6.00248e+01 -2.56850e+00  1.07579e+00
       L  3.09962e+00  1.25980e+01  1.45424e-01
6
# CELL(abcABC):  459.05226   459.05226   459.05226    90.00000    90.00000    90.00000  Step:          14  Bead:       0 x_centroid{angstrom}  cell{atomic_unit}
       C -3.38421e-01 -1.16251e-01  9.23176e-02
       O  8.44495e-01  2.66503e-01 -1.89996e-01
       H -6.61890e-02  8.06679e-01 -6.54756e-01
       H -4.71872e-01 -9.84170e-01  7.50786e-01
       L  5.99258e+01 -2.57911e+00  1.03162e+00
       L  3.13719e+00  1.29483e+01  1.26970e-01
6
# CELL(abcABC):  459.05226   459.05226   459.05226    90.00000    90.00000    90.00000  Step:          15  Bead:       0 x_centroid{angstrom}  cell{atomic_unit}
       C -3.39396e-01 -1.16017e-01  9.29353e-02
       O  8.45181e-01  2.66731e-01 -1.90426e-01
       H -6.70384e-02  8.02026e-01 -6.54536e-01
       H -4.70278e-01 -9.86118e-01  7.50088e-01
       L  5.98643e+01 -2.56667e+00  9.74762e-01
       L  3.16293e+00  1.33002e+01  7.78886e-02
6
# CELL(abcABC):  459.05226   459.05226   459.05226    90.00000    90.00000    90.00000  Step:          16  Bead:       0 x_centroid{angstrom}  cell{atomic_unit}
       C -3.40387e-01 -1.16092e-01  9.32842e-02
       O  8.45580e-01  2.67144e-01 -1.90758e-01
       H -6.50548e-02  7.98858e-01 -6.53290e-01
       H -4.66735e-01 -9.88802e-01  7.50024e-01
       L  5.98211e+01 -2.50169e+00  8.93434e-01
       L  3.14092e+00  1.35791e+01  4.22584e-02
6
# CELL(abcABC):  459.05226   459.05226   459.05226    90.00000    90.00000    90.00000  Step:          17  Bead:       0 x_centroid{angstrom}  cell{atomic_unit}
       C -3.41563e-01 -1.16158e-01  9.36853e-02
       O  8.45932e-01  2.67524e-01 -1.91041e-01
       H -6.18157e-02  7.96421e-01 -6.53215e-01
       H -4.61528e-01 -9.91808e-01  7.49723e-01
       L  5.97931e+01 -2.41659e+00  8.45355e-01
       L  3.11250e+00  1.38548e+01 -2.44849e-02
6
# CELL(abcABC):  459.05226   459.05226   459.05226    90.00000    90.00000    90.00000  Step:          18  Bead:       0 x_centroid{angstrom}  cell{atomic_unit}
       C -3.42979e-01 -1.16544e-01  9.39404e-02
       O  8.46378e-01  2.67939e-01 -1.91100e-01
       H -5.82277e-02  7.96241e-01 -6.53502e-01
       H -4.55297e-01 -9.93836e-01  7.47964e-01
       L  5.97551e+01 -2.32268e+00  7.81550e-01
       L  3.09329e+00  1.41815e+01 -4.82582e-02
6
# CELL(abcABC):  459.05226   459.05226   459.05226    90.00000    90.00000    90.00000  Step:          19  Bead:       0 x_centroid{angstrom}  cell{atomic_unit}
       C -3.44561e-01 -1.17132e-01  9.43450e-02
       O  8.46913e-01  2.68470e-01 -1.91228e-01
       H -5.41356e-02  7.95663e-01 -6.54968e-01
       H -4.49001e-01 -9.94949e-01  7.46703e-01
       L  5.97140e+01 -2.22346e+00  6.86200e-01
       L  3.09432e+00  1.45527e+01 -8.00559e-02
6
# CELL(abcABC):  459.05226   459.05226   459.05226    90.00000    90.00000    90.00000  Step:          20  Bead:       0 x_centroid{angstrom}  cell{atomic_unit}
       C -3.46298e-01 -1.17707e-01  9.48224e-02
       O  8.47717e-01  2.68918e-01 -1.91300e-01
       H -5.20454e-02  7.94033e-01 -6.57369e-01
       H -4.43150e-01 -9.93816e-01  7.44644e-01
       L  5.97209e+01 -2.07918e+00  5.72848e-01
       L  3.07418e+00  1.48653e+01 -1.12986e-01
6
# CELL(abcABC):  459.05226   459.05226   459.05226    90.00000    90.00000    90.00000  Step:          21  Bead:       0 x_centroid{angstrom}  cell{atomic_unit}
       C -3.48186e-01 -1.18334e-01  9.54520e-02
       O  8.48734e-01  2.69342e-01 -1.91430e-01
       H -5.14934e-02  7.93677e-01 -6.59913e-01
       H -4.37322e-01 -9.92997e-01  7.41805e-01
       L  5.97233e+01 -1.90779e+00  4.87558e-01
       L  3.03726e+00  1.51974e+01 -1.40406e-01
6
# CELL(abcABC):  459.05226   459.05226   459.05226    90.00000    90.00000    90.00000  Step:          22  Bead:       0 x_centroid{angstrom}  cell{atomic_unit}
       C -3.50071e-01 -1.19096e-01  9.59024e-02
       O  8.49827e-01  2.69762e-01 -1.91438e-01
       H -5.15217e-02  7.94899e-01 -6.62188e-01
       H -4.32142e-01 -9.92070e-01  7.38902e-01
       L  5.97278e+01 -1.73917e+00  3.65925e-01
       L  2.94928e+00  1.55034e+01 -1.27679e-01
6
# CELL(abcABC):  459.05226   459.05226   459.05226    90.00000    90.00000    90.00000  Step:          23  Bead:       0 x_centroid{angstrom}  cell{atomic_unit}
       C -3.52052e-01 -1.19698e-01  9.63901e-02
       O  8.50871e-01  2.70069e-01 -1.91487e-01
       H -5.13595e-02  7.95740e-01 -6.64754e-01
       H -4.25232e-01 -9.90919e-01  7.36507e-01
       L  5.97466e+01 -1.49127e+00  2.58326e-01
       L  2.86513e+00  1.58185e+01 -1.75859e-01
6
# CELL(abcABC):  459.05226   459.05226   459.05226    90.00000    90.00000    90.00000  Step:          24  Bead:       0 x_centroid{angstrom}  cell{atomic_unit}
       C -3.53824e-01 -1.20196e-01  9.71025e-02
       O  8.51755e-01  2.70273e-01 -1.91622e-01
       H -5.07542e-02  7.97489e-01 -6.67291e-01
       H -4.18698e-01 -9.90281e-01  7.32801e-01
       L  5.97362e+01 -1.27060e+00  1.08156e-01
       L  2.76797e+00  1.61740e+01 -2.10350e-01
6
# CELL(abcABC):  459.05226   459.05226   459.05226    90.00000    90.00000    90.00000  Step:          25  Bead:       0 x_centroid{angstrom}  cell{atomic_unit}
       C -3.55439e-01 -1.20826e-01  9.78433e-02
       O  8.52469e-01  2.70601e-01 -1.91877e-01
       H -5.00120e-02  7.98572e-01 -6.68976e-01
       H -4.11431e-01 -9.89355e-01  7.29792e-01
       L  5.96766e+01 -1.09274e+00  1.36742e-02
       L  2.63593e+00  1.65310e+01 -2.60042e-01
6
# CELL(abcABC):  459.05226   459.05226   459.05226    90.00000    90.00000    90.00000  Step:          26  Bead:       0 x_centroid{angstrom}  cell{atomic_unit}
       C -3.57051e-01 -1.21479e-01  9.83079e-02
       O  8.53107e-01  2.71028e-01 -1.92024e-01
       H -4.81089e-02  7.99135e-01 -6.70347e-01
       H -4.04099e-01 -9.89195e-01  7.28032e-01
       L  5.95716e+01 -9.55185e-01 -7.48797e-02
       L  2.47297e+00  1.68997e+01 -3.21476e-01
6
# CELL(abcABC):  459.05226   459.05226   459.05226    90.00000    90.00000    90.00000  Step:          27  Bead:       0 x_centroid{angstrom}  cell{atomic_unit}
       C -3.58492e-01 -1.21867e-01  9.89116e-02
       O  8.53687e-01  2.71390e-01 -1.92340e-01
       H -4.60721e-02  7.98836e-01 -6.71161e-01
       H -3.98025e-01 -9.90317e-01  7.26769e-01
       L  5.94728e+01 -7.78101e-01 -1.74487e-01
       L  2.29264e+00  1.72706e+01 -3.85173e-01
6
# CELL(abcABC):  459.05226   459.05226   459.05226    90.00000    90.00000    90.00000  Step:          28  Bead:       0 x_centroid{angstrom}  cell{atomic_unit}
       C -3.59981e-01 -1.22281e-01  9.94862e-02
       O  8.54368e-01  2.71902e-01 -1.92641e-01
       H -4.50184e-02  7.97487e-01 -6.71373e-01
       H -3.91946e-01 -9.92422e-01  7.24964e-01
       L  5.93659e+01 -6.07386e-01 -2.23480e-01
       L  2.05235e+00  1.75778e+01 -4.49165e-01
6
# CELL(abcABC):  459.05226   459.05226   459.05226    90.00000    90.00000    90.00000  Step:          29  Bead:       0 x_centroid{angstrom}  cell{atomic_unit}
       C -3.61187e-01 -1.23087e-01  9.99861e-02
       O  8.54972e-01  2.72836e-01 -1.92962e-01
       H -4.45755e-02  7.94537e-01 -6.70818e-01
       H -3.87400e-01 -9.94957e-01  7.23618e-01
       L  5.92590e+01 -4.09776e-01 -2.55123e-01
       L  1.77034e+00  1.78694e+01 -5.42278e-01
6
# CELL(abcABC):  459.05226   459.05226   459.05226    90.00000    90.00000    90.00000  Step:          30  Bead:       0 x_centroid{angstrom}  cell{atomic_unit}
       C -3.61869e-01 -1.23629e-01  1.00477e-01
       O  8.55305e-01  2.73749e-01 -1.93456e-01
       H -4.40438e-02  7.89606e-01 -6.68722e-01
       H -3.84837e-01 -9.98316e-01  7.23576e-01
       L  5.91015e+01 -2.00292e-01 -2.96930e-01
       L  1.48124e+00  1.81510e+01 -6.27336e-01
6
# CELL(abcABC):  459.05226   459.05226   459.05226    90.00000    90.00000    90.00000  Step:          31  Bead:       0 x_centroid{angstrom}  cell{atomic_unit}
       C -3.62469e-01 -1.24005e-01  1.00567e-01
       O  8.55711e-01  2.74685e-01 -1.93698e-01
       H -4.41622e-02  7.84071e-01 -6.67320e-01
       H -3.83745e-01 -1.00343e+00  7.25053e-01
       L  5.88695e+01 -6.56823e-03 -3.62985e-01
       L  1.21186e+00  1.84263e+01 -7.43366e-01
6
# CELL(abcABC):  459.05226   459.05226   459.05226    90.00000    90.00000    90.00000  Step:          32  Bead:       0 x_centroid{angstrom}  cell{atomic_unit}
       C -3.62677e-01 -1.24231e-01  1.00746e-01
       O  8.55755e-01  2.75467e-01 -1.94017e-01
       H -4.32271e-02  7.79752e-01 -6.66560e-01
       H -3.82625e-01 -1.00906e+00  7.27322e-01
       L  5.86452e+01  1.67747e-01 -4.45867e-01
       L  9.27337e-01  1.86725e+01 -8.52583e-01
6
# CELL(abcABC):  459.05226   459.05226   459.05226    90.00000    90.00000    90.00000  Step:          33  Bead:       0 x_centroid{angstrom}  cell{atomic_unit}
       C -3.62745e-01 -1.24829e-01  1.00748e-01
       O  8.55657e-01  2.76293e-01 -1.94134e-01
       H -4.13543e-02  7.78378e-01 -6.67248e-01
       H -3.81816e-01 -1.01389e+00  7.29900e-01
       L  5.83511e+01  3.13417e-01 -4.82837e-01
       L  6.15081e-01  1.89208e+01 -9.23880e-01
6
# CELL(abcABC):  459.05226   459.05226   459.05226    90.00000    90.00000    90.00000  Step:          34  Bead:       0 x_centroid{angstrom}  cell{atomic_unit}
       C -3.62832e-01 -1.25518e-01  1.00839e-01
       O  8.55530e-01  2.77125e-01 -1.94223e-01
       H -3.88055e-02  7.78308e-01 -6.68933e-01
       H -3.80972e-01 -1.01907e+00  7.31939e-01
       L  5.80370e+01  5.24273e-01 -4.86139e-01
       L  3.08364e-01  1.91949e+01 -9.32173e-01
6
# CELL(abcABC):  459.05226   459.05226   459.05226    90.00000    90.00000    90.00000  Step:          35  Bead:       0 x_centroid{angstrom}  cell{atomic_unit}
       C -3.62745e-01 -1.26065e-01  1.00985e-01
       O  8.55436e-01  2.77727e-01 -1.94287e-01
       H -3.75276e-02  7.79251e-01 -6.71435e-01
       H -3.81447e-01 -1.02336e+00  7.33725e-01
       L  5.76974e+01  7.97801e-01 -5.13200e-01
       L  1.40588e-02  1.94781e+01 -9.46324e-01
6
# CELL(abcABC):  459.05226   459.05226   459.05226    90.00000    90.00000    90.00000  Step:          36  Bead:       0 x_centroid{angstrom}  cell{atomic_unit}
       C -3.62746e-01 -1.26723e-01  1.01025e-01
       O  8.55485e-01  2.78420e-01 -1.94229e-01
       H -3.68764e-02  7.78697e-01 -6.73547e-01
       H -3.82468e-01 -1.02627e+00  7.34457e-01
       L  5.73006e+01  1.08570e+00 -5.09621e-01
       L -2.98745e-01  1.97529e+01 -9.76685e-01
6
# CELL(abcABC):  459.05226   459.05226   459.05226    90.00000    90.00000    90.00000  Step:          37  Bead:       0 x_centroid{angstrom}  cell{atomic_unit}
       C -3.62884e-01 -1.27754e-01  1.01285e-01
       O  8.55679e-01  2.79395e-01 -1.94247e-01
       H -3.62774e-02  7.76932e-01 -6.76564e-01
       H -3.84131e-01 -1.02795e+00  7.34672e-01
       L  5.68778e+01  1.31759e+00 -5.16577e-01
       L -5.75482e-01  1.99870e+01 -9.82741e-01
6
# CELL(abcABC):  459.05226   459.05226   459.05226    90.00000    90.00000    90.00000  Step:          38  Bead:       0 x_centroid{angstrom}  cell{atomic_unit}
       C -3.62850e-01 -1.28980e-01  1.01655e-01
       O  8.55814e-01  2.80304e-01 -1.94308e-01
       H -3.52647e-02  7.76519e-01 -6.78739e-01
       H -3.87302e-01 -1.02756e+00  7.33406e-01
       L  5.64460e+01  1.52463e+00 -5.28519e-01
       L -8.49738e-01  2.01787e+01 -9.60829e-01
6
# CELL(abcABC):  459.05226   459.05226   459.05226    90.00000    90.00000    90.00000  Step:          39  Bead:       0 x_centroid{angstrom}  cell{atomic_unit}
       C -3.62702e-01 -1.30344e-01  1.01844e-01
       O  8.55963e-01  2.81334e-01 -1.94087e-01
       H -3.45775e-02  7.75653e-01 -6.80845e-01
       H -3.91726e-01 -1.02699e+00  7.29752e-01
       L  5.60062e+01  1.74230e+00 -5.69628e-01
       L -1.12557e+00  2.03434e+01 -9.19959e-01
6
# CELL(abcABC):  459.05226   459.05226   459.05226    90.00000    90.00000    90.00000  Step:          40  Bead:       0 x_centroid{angstrom}  cell{atomic_unit}
       C -3.62343e-01 -1.32154e-01  1.02081e-01
       O  8.55899e-01  2.82657e-01 -1.93805e-01
       H -3.18414e-02  7.75111e-01 -6.83776e-01
       H -3.97340e-01 -1.02606e+00  7.25341e-01
       L  5.55846e+01  1.88641e+00 -5.89210e-01
       L -1.41043e+00  2.04919e+01 -8.50891e-01
6
# CELL(abcABC):  459.05226   459.05226   459.05226    90.00000    90.00000    90.00000  Step:          41  Bead:       0 x_centroid{angstrom}  cell{atomic_unit}
       C -3.61998e-01 -1.34418e-01  1.02530e-01
       O  8.55770e-01  2.84324e-01 -1.93668e-01
       H -2.79572e-02  7.74997e-01 -6.86018e-01
       H -4.02911e-01 -1.02552e+00  7.20018e-01
       L  5.51590e+01  2.00932e+00 -5.82360e-01
       L -1.68342e+00  2.05404e+01 -7.69326e-01
6
# CELL(abcABC):  459.05226   459.05226   459.05226    90.00000    90.00000    90.00000  Step:          42  Bead:       0 x_centroid{angstrom}  cell{atomic_unit}
       C -3.61510e-01 -1.36639e-01  1.03099e-01
       O  8.55436e-01  2.85916e-01 -1.93589e-01
       H -2.17297e-02  7.75611e-01 -6.89717e-01
       H -4.09266e-01 -1.02501e+00  7.15664e-01
       L  5.47294e+01  2.10760e+00 -5.73982e-01
       L -1.94940e+00  2.05941e+01 -7.56482e-01
6
# CELL(abcABC):  459.05226   459.05226   459.05226    90.00000    90.00000    90.00000  Step:          43  Bead:       0 x_centroid{angstrom}  cell{atomic_unit}
       C -3.61156e-01 -1.38779e-01  1.03950e-01
       O  8.55149e-01  2.87415e-01 -1.93745e-01
       H -1.48511e-02  7.76477e-01 -6.94785e-01
       H -4.15442e-01 -1.02427e+00  7.13069e-01
       L  5.42896e+01  2.20574e+00 -5.42929e-01
       L -2.20063e+00  2.06618e+01 -7.72446e-01
6
# CELL(abcABC):  459.05226   459.05226   459.05226    90.00000    90.00000    90.00000  Step:          44  Bead:       0 x_centroid{angstrom}  cell{atomic_unit}
       C -3.60770e-01 -1.41104e-01  1.04882e-01
       O  8.54847e-01  2.89022e-01 -1.93975e-01
       H -8.95200e-03  7.78257e-01 -6.99718e-01
       H -4.20790e-01 -1.02393e+00  7.10493e-01
       L  5.38503e+01  2.28093e+00 -5.31733e-01
       L -2.41782e+00  2.07233e+01 -7.12792e-01
6
# CELL(abcABC):  459.05226   459.05226   459.05226    90.00000    90.00000    90.00000  Step:          45  Bead:       0 x_centroid{angstrom}  cell{atomic_unit}
       C -3.60362e-01 -1.43650e-01  1.05812e-01
       O  8.54671e-01  2.90808e-01 -1.94149e-01
       H -4.79058e-03  7.80076e-01 -7.04974e-01
       H -4.26686e-01 -1.02384e+00  7.07423e-01
       L  5.33995e+01  2.34619e+00 -5.40919e-01
       L -2.57395e+00  2.07964e+01 -6.95059e-01
6
# CELL(abcABC):  459.05226   459.05226   459.05226    90.00000    90.00000    90.00000  Step:          46  Bead:       0 x_centroid{angstrom}  cell{atomic_unit}
       C -3.60005e-01 -1.46218e-01  1.06755e-01
       O  8.54619e-01  2.92750e-01 -1.94421e-01
       H -9.70104e-04  7.80685e-01 -7.10749e-01
       H -4.33594e-01 -1.02473e+00  7.06278e-01
       L  5.29109e+01  2.39797e+00 -5.37765e-01
       L -2.72255e+00  2.08724e+01 -6.71503e-01
6
# CELL(abcABC):  459.05226   459.05226   459.05226    90.00000    90.00000    90.00000  Step:          47  Bead:       0 x_centroid{angstrom}  cell{atomic_unit}
       C -3.60010e-01 -1.48621e-01  1.07611e-01
       O  8.54882e-01  2.94651e-01 -1.94702e-01
       H  2.64887e-03  7.81113e-01 -7.15949e-01
       H -4.40965e-01 -1.02672e+00  7.05682e-01
       L  5.23844e+01  2.41503e+00 -5.13821e-01
       L -2.86570e+00  2.08863e+01 -6.01931e-01
6
# CELL(abcABC):  459.05226   459.05226   459.05226    90.00000    90.00000    90.00000  Step:          48  Bead:       0 x_centroid{angstrom}  cell{atomic_unit}
       C -3.60162e-01 -1.50855e-01  1.08121e-01
       O  8.55338e-01  2.96523e-01 -1.94832e-01
       H  5.50684e-03  7.81115e-01 -7.20110e-01
       H -4.48864e-01 -1.02978e+00  7.05791e-01
       L  5.17912e+01  2.35838e+00 -4.66597e-01
       L -2.97580e+00  2.08821e+01 -5.65552e-01
6
# CELL(abcABC):  459.05226   459.05226   459.05226    90.00000    90.00000    90.00000  Step:          49  Bead:       0 x_centroid{angstrom}  cell{atomic_unit}
       C -3.60333e-01 -1.52902e-01  1.08526e-01
       O  8.55726e-01  2.98462e-01 -1.94861e-01
       H  7.34010e-03  7.80489e-01 -7.24545e-01
       H -4.54376e-01 -1.03542e+00  7.05796e-01
       L  5.11357e+01  2.23501e+00 -3.68537e-01
       L -3.11467e+00  2.07933e+01 -5.59842e-01
6
# CELL(abcABC):  459.05226   459.05226   459.05226    90.00000    90.00000    90.00000  Step:          50  Bead:       0 x_centroid{angstrom}  cell{atomic_unit}
       C -3.60695e-01 -1.54753e-01  1.08904e-01
       O  8.56115e-01  3.00456e-01 -1.94976e-01
       H  1.08474e-02  7.78771e-01 -7.28237e-01
       H -4.59308e-01 -1.04316e+00  7.06724e-01
       L  5.04450e+01  2.07826e+00 -3.21538e-01
       L -3.23704e+00  2.06669e+01 -4.55440e-01
6
# CELL(abcABC):  459.05226   459.05226   459.05226    90.00000    90.00000    90.00000  Step:          51  Bead:       0 x_centroid{angstrom}  cell{atomic_unit}
       C -3.60836e-01 -1.56495e-01  1.09285e-01
       O  8.56183e-01  3.02480e-01 -1.95278e-01
       H  1.50890e-02  7.76286e-01 -7.31365e-01
       H -4.62489e-01 -1.05188e+00  7.10009e-01
       L  4.97674e+01  1.89829e+00 -2.47683e-01
       L -3.39123e+00  2.05533e+01 -3.55863e-01
6
# CELL(abcABC):  459.05226   459.05226   459.05226    90.00000    90.00000    90.00000  Step:          52  Bead:       0 x_centroid{angstrom}  cell{atomic_unit}
       C -3.61144e-01 -1.58104e-01  1.09721e-01
       O  8.56251e-01  3.04456e-01 -1.95864e-01
       H  2.03884e-02  7.73283e-01 -7.33222e-01
       H -4.64714e-01 -1.06089e+00  7.15879e-01
       L  4.90291e+01  1.71964e+00 -1.32207e-01
       L -3.54176e+00  2.04344e+01 -2.92387e-01
6
# CELL(abcABC):  459.05226   459.05226   459.05226    90.00000    90.00000    90.00000  Step:          53  Bead:       0 x_centroid{angstrom}  cell{atomic_unit}
       C -3.61594e-01 -1.59866e-01  1.10420e-01
       O  8.56283e-01  3.06481e-01 -1.96763e-01
       H  2.70840e-02  7.71538e-01 -7.33132e-01
       H -4.66048e-01 -1.07010e+00  7.21652e-01
       L  4.82296e+01  1.50785e+00 -2.58289e-02
       L -3.69102e+00  2.02636e+01 -2.37895e-01
6
# CELL(abcABC):  459.05226   459.05226   459.05226    90.00000    90.00000    90.00000  Step:          54  Bead:       0 x_centroid{angstrom}  cell{atomic_unit}
       C -3.62619e-01 -1.62071e-01  1.11255e-01
       O  8.56610e-01  3.08608e-01 -1.97792e-01
       H  3.54155e-02  7.71067e-01 -7.32591e-01
       H -4.66821e-01 -1.07694e+00  7.27416e-01
       L  4.73611e+01  1.32177e+00  5.34389e-02
       L -3.79678e+00  2.01172e+01 -1.61356e-01
6
# CELL(abcABC):  459.05226   459.05226   459.05226    90.00000    90.00000    90.00000  Step:          55  Bead:       0 x_centroid{angstrom}  cell{atomic_unit}
       C -3.64172e-01 -1.64348e-01  1.12172e-01
       O  8.57264e-01  3.10626e-01 -1.98949e-01
       H  4.45229e-02  7.71607e-01 -7.29806e-01
       H -4.67297e-01 -1.08214e+00  7.31962e-01
       L  4.64484e+01  1.03583e+00  1.44076e-01
       L -3.82591e+00  1.99651e+01 -6.76946e-02
6
# CELL(abcABC):  459.05226   459.05226   459.05226    90.00000    90.00000    90.00000  Step:          56  Bead:       0 x_centroid{angstrom}  cell{atomic_unit}
       C -3.66035e-01 -1.66691e-01  1.13517e-01
       O  8.57958e-01  3.12449e-01 -2.00445e-01
       H  5.36555e-02  7.73672e-01 -7.26642e-01
       H -4.64687e-01 -1.08498e+00  7.36403e-01
       L  4.54686e+01  7.47890e-01  2.55616e-01
       L -3.86331e+00  1.98055e+01  3.36472e-02
6
# CELL(abcABC):  459.05226   459.05226   459.05226    90.00000    90.00000    90.00000  Step:          57  Bead:       0 x_centroid{angstrom}  cell{atomic_unit}
       C -3.68537e-01 -1.69179e-01  1.14961e-01
       O  8.59000e-01  3.14070e-01 -2.01972e-01
       H  6.27531e-02  7.76997e-01 -7.23709e-01
       H -4.59946e-01 -1.08410e+00  7.40448e-01
       L  4.44145e+01  3.96711e-01  2.70481e-01
       L -3.86551e+00  1.96430e+01  1.07358e-01
6
# CELL(abcABC):  459.05226   459.05226   459.05226    90.00000    90.00000    90.00000  Step:          58  Bead:       0 x_centroid{angstrom}  cell{atomic_unit}
       C -3.71599e-01 -1.71837e-01  1.16352e-01
       O  8.60220e-01  3.15651e-01 -2.03245e-01
       H  7.49446e-02  7.82535e-01 -7.22218e-01
       H -4.54442e-01 -1.08279e+00  7.42511e-01
       L  4.33476e+01  2.19761e-02  2.70706e-01
       L -3.84785e+00  1.95368e+01  2.46750e-01
6
# CELL(abcABC):  459.05226   459.05226   459.05226    90.00000    90.00000    90.00000  Step:          59  Bead:       0 x_centroid{angstrom}  cell{atomic_unit}
       C -3.74897e-01 -1.74505e-01  1.17762e-01
       O  8.61412e-01  3.16908e-01 -2.04559e-01
       H  8.93744e-02  7.90501e-01 -7.20225e-01
       H -4.47896e-01 -1.07866e+00  7.44502e-01
       L  4.22090e+01 -3.49356e-01  2.59699e-01
       L -3.79564e+00  1.94011e+01  3.97113e-01
6
# CELL(abcABC):  459.05226   459.05226   459.05226    90.00000    90.00000    90.00000  Step:          60  Bead:       0 x_centroid{angstrom}  cell{atomic_unit}
       C -3.78731e-01 -1.77271e-01  1.19386e-01
       O  8.62740e-01  3.18033e-01 -2.05952e-01
       H  1.07075e-01  8.00080e-01 -7.18238e-01
       H -4.40410e-01 -1.07279e+00  7.45226e-01
       L  4.10140e+01 -8.28112e-01  1.97656e-01
       L -3.65894e+00  1.92570e+01  5.31478e-01
6
# CELL(abcABC):  459.05226   459.05226   459.05226    90.00000    90.00000    90.00000  Step:          61  Bead:       0 x_centroid{angstrom}  cell{atomic_unit}
       C -3.82810e-01 -1.80238e-01  1.21132e-01
       O  8.64038e-01  3.19137e-01 -2.07353e-01
       H  1.26861e-01  8.11452e-01 -7.16866e-01
       H -4.31601e-01 -1.06602e+00  7.45254e-01
       L  3.97642e+01 -1.27896e+00  1.40228e-01
       L -3.51804e+00  1.91173e+01  6.65434e-01
6
# CELL(abcABC):  459.05226   459.05226   459.05226    90.00000    90.00000    90.00000  Step:          62  Bead:       0 x_centroid{angstrom}  cell{atomic_unit}
       C -3.87109e-01 -1.83467e-01  1.22818e-01
       O  8.65159e-01  3.20430e-01 -2.08695e-01
       H  1.49479e-01  8.23796e-01 -7.15795e-01
       H -4.20163e-01 -1.06011e+00  7.45349e-01
       L  3.84541e+01 -1.67685e+00  8.89746e-02
       L -3.34444e+00  1.89934e+01  7.95984e-01
6
# CELL(abcABC):  459.05226   459.05226   459.05226    90.00000    90.00000    90.00000  Step:          63  Bead:       0 x_centroid{angstrom}  cell{atomic_unit}
       C -3.91652e-01 -1.86995e-01  1.24949e-01
       O  8.66287e-01  3.22028e-01 -2.10366e-01
       H  1.73647e-01  8.36894e-01 -7.14310e-01
       H -4.07438e-01 -1.05625e+00  7.44940e-01
       L  3.70220e+01 -2.10361e+00  4.38066e-02
       L -3.12865e+00  1.88847e+01  9.25471e-01
6
# CELL(abcABC):  459.05226   459.05226   459.05226    90.00000    90.00000    90.00000  Step:          64  Bead:       0 x_centroid{angstrom}  cell{atomic_unit}
       C -3.96849e-01 -1.90693e-01  1.27081e-01
       O  8.67774e-01  3.23710e-01 -2.12103e-01
       H  1.99634e-01  8.51369e-01 -7.12721e-01
       H -3.94450e-01 -1.05310e+00  7.45514e-01
       L  3.55399e+01 -2.51252e+00 -1.20645e-02
       L -2.83577e+00  1.88090e+01  1.02257e+00
6
# CELL(abcABC):  459.05226   459.05226   459.05226    90.00000    90.00000    90.00000  Step:          65  Bead:       0 x_centroid{angstrom}  cell{atomic_unit}
       C -4.03043e-01 -1.94701e-01  1.29183e-01
       O  8.69811e-01  3.25719e-01 -2.13914e-01
       H  2.28381e-01  8.66928e-01 -7.11412e-01
       H -3.81064e-01 -1.05251e+00  7.47882e-01
       L  3.39974e+01 -2.86865e+00 -1.94707e-02
       L -2.51032e+00  1.86550e+01  1.05367e+00
6
# CELL(abcABC):  459.05226   459.05226   459.05226    90.00000    90.00000    90.00000  Step:          66  Bead:       0 x_centroid{angstrom}  cell{atomic_unit}
       C -4.09719e-01 -1.98637e-01  1.31056e-01