6
# CELL(abcABC):  459.05226   459.05226   459.05226    90.00000    90.00000    90.00000  Step:           0  Bead:       0 x_centroid{angstrom}  cell{atomic_unit}
       C -3.39887e-01 -1.13437e-01  8.06659e-02
       O  8.43483e-01  2.62672e-01 -1.81512e-01
       H -7.35799e-02  8.16467e-01 -6.61432e-01
       H -4.30016e-01 -9.65701e-01  7.62278e-01
       L  6.13458e+01  0.00000e+00  0.00000e+00
       L  0.00000e+00  8.59064e+00  0.00000e+00
6
# CELL(abcABC):  459.05226   459.05226   459.05226    90.00000    90.00000    90.00000  Step:           1  Bead:       0 x_centroid{angstrom}  cell{atomic_unit}
       C -3.39830e-01 -1.11491e-01  7.91093e-02
       O  8.43996e-01  2.61663e-01 -1.79899e-01
       H -7.14493e-02  8.07878e-01 -6.70617e-01
       H -4.40437e-01 -9.64484e-01  7.64302e-01
       L  6.04360e+01 -5.62241e-02 -5.71896e-02
       L -6.08295e-02  8.97826e+00  2.36139e-01
6
# CELL(abcABC):  459.05226   459.05226   459.05226    90.00000    90.00000    90.00000  Step:           2  Bead:       0 x_centroid{angstrom}  cell{atomic_unit}
       C -3.39558e-01 -1.09712e-01  7.74777e-02
       O  8.44205e-01  2.60676e-01 -1.78248e-01
       H -6.62984e-02  8.00634e-01 -6.79460e-01
       H -4.51625e-01 -9.62923e-01  7.66286e-01
       L  5.96104e+01 -1.13408e-01 -1.08278e-01
       L -1.89616e-01  9.35255e+00  4.76578e-01
6
# CELL(abcABC):  459.05226   459.05226   459.05226    90.00000    90.00000    90.00000  Step:           3  Bead:       0 x_centroid{angstrom}  cell{atomic_unit}
       C -3.39345e-01 -1.08135e-01  7.59029e-02
       O  8.44231e-01  2.59848e-01 -1.76672e-01
       H -5.89404e-02  7.94188e-01 -6.89427e-01
       H -4.61401e-01 -9.62307e-01  7.69875e-01
       L  5.88082e+01 -1.52369e-01 -8.83824e-02
       L -3.57437e-01  9.70298e+00  6.73726e-01
6
# CELL(abcABC):  459.05226   459.05226   459.05226    90.00000    90.00000    90.00000  Step:           4  Bead:       0 x_centroid{angstrom}  cell{atomic_unit}
       C -3.39230e-01 -1.06577e-01  7.47438e-02
       O  8.44288e-01  2.58985e-01 -1.75306e-01
       H -5.06453e-02  7.87976e-01 -6.99779e-01
       H -4.71409e-01 -9.61201e-01  7.72265e-01
       L  5.79828e+01 -1.30877e-01 -7.49795e-02
       L -5.71235e-01  1.00997e+01  8.29030e-01
6
# CELL(abcABC):  459.05226   459.05226   459.05226    90.00000    90.00000    90.00000  Step:           5  Bead:       0 x_centroid{angstrom}  cell{atomic_unit}
       C -3.39021e-01 -1.05138e-01  7.37076e-02
       O  8.44237e-01  2.58124e-01 -1.73849e-01
       H -4.09709e-02  7.81313e-01 -7.11152e-01
       H -4.82183e-01 -9.58213e-01  7.72729e-01
       L  5.71680e+01 -7.83718e-02 -5.42793e-02
       L -8.09396e-01  1.04440e+01  1.04491e+00
6
# CELL(abcABC):  459.05226   459.05226   459.05226    90.00000    90.00000    90.00000  Step:           6  Bead:       0 x_centroid{angstrom}  cell{atomic_unit}
       C -3.38786e-01 -1.03670e-01  7.26670e-02
       O  8.44265e-01  2.57325e-01 -1.72243e-01
       H -3.36206e-02  7.72691e-01 -7.22339e-01
       H -4.92211e-01 -9.54559e-01  7.70727e-01
       L  5.63339e+01 -7.01522e-02 -9.32977e-02
       L -1.02370e+00  1.07071e+01  1.26980e+00
6
# CELL(abcABC):  459.05226   459.05226   459.05226    90.00000    90.00000    90.00000  Step:           7  Bead:       0 x_centroid{angstrom}  cell{atomic_unit}
       C -3.38908e-01 -1.01996e-01  7.21891e-02
       O  8.44580e-01  2.56397e-01 -1.71045e-01
       H -2.83066e-02  7.63332e-01 -7.32558e-01
       H -5.00500e-01 -9.50528e-01  7.67535e-01
       L  5.54763e+01 -4.85194e-02 -1.05401e-01
       L -1.23829e+00  1.08833e+01  1.44249e+00
6
# CELL(abcABC):  459.05226   459.05226   459.05226    90.00000    90.00000    90.00000  Step:           8  Bead:       0 x_centroid{angstrom}  cell{atomic_unit}
       C -3.39423e-01 -1.00544e-01  7.19734e-02
       O  8.45091e-01  2.55615e-01 -1.69987e-01
       H -2.27909e-02  7.53799e-01 -7.42893e-01
       H -5.07426e-01 -9.45996e-01  7.63587e-01
       L  5.46308e+01  7.95859e-03 -1.56827e-01
       L -1.42849e+00  1.10506e+01  1.58463e+00
6
# CELL(abcABC):  459.05226   459.05226   459.05226    90.00000    90.00000    90.00000  Step:           9  Bead:       0 x_centroid{angstrom}  cell{atomic_unit}
       C -3.40417e-01 -9.94002e-02  7.19807e-02
       O  8.45861e-01  2.54991e-01 -1.69130e-01
       H -1.64481e-02  7.44367e-01 -7.52795e-01
       H -5.13577e-01 -9.40355e-01  7.59733e-01
       L  5.37792e+01  8.33323e-03 -1.70389e-01
       L -1.63673e+00  1.11600e+01  1.72630e+00
6
# CELL(abcABC):  459.05226   459.05226   459.05226    90.00000    90.00000    90.00000  Step:          10  Bead:       0 x_centroid{angstrom}  cell{atomic_unit}
       C -3.41682e-01 -9.85899e-02  7.18395e-02
       O  8.46646e-01  2.54593e-01 -1.68114e-01
       H -8.11113e-03  7.36266e-01 -7.63390e-01
       H -5.18717e-01 -9.35631e-01  7.55865e-01
       L  5.29183e+01 -3.88444e-02 -2.34390e-01
       L -1.83599e+00  1.12902e+01  1.82312e+00
6
# CELL(abcABC):  459.05226   459.05226   459.05226    90.00000    90.00000    90.00000  Step:          11  Bead:       0 x_centroid{angstrom}  cell{atomic_unit}
       C -3.43163e-01 -9.77791e-02  7.16664e-02
       O  8.47399e-01  2.54132e-01 -1.67054e-01
       H  2.54107e-03  7.30318e-01 -7.74342e-01
       H -5.23156e-01 -9.32096e-01  7.52028e-01
       L  5.21178e+01 -7.30826e-02 -3.18783e-01
       L -1.98001e+00  1.14327e+01  1.95740e+00
6
# CELL(abcABC):  459.05226   459.05226   459.05226    90.00000    90.00000    90.00000  Step:          12  Bead:       0 x_centroid{angstrom}  cell{atomic_unit}
       C -3.44687e-01 -9.70883e-02  7.13984e-02
       O  8.48002e-01  2.53696e-01 -1.66008e-01
       H  1.52753e-02  7.25796e-01 -7.85548e-01
       H -5.26767e-01 -9.28945e-01  7.49801e-01
       L  5.12878e+01 -7.27799e-02 -3.65103e-01
       L -2.13662e+00  1.15652e+01  2.04960e+00
6
# CELL(abcABC):  459.05226   459.05226   459.05226    90.00000    90.00000    90.00000  Step:          13  Bead:       0 x_centroid{angstrom}  cell{atomic_unit}
       C -3.46450e-01 -9.66051e-02  7.09977e-02
       O  8.48729e-01  2.53291e-01 -1.65064e-01
       H  2.82736e-02  7.23409e-01 -7.96656e-01
       H -5.29791e-01 -9.26018e-01  7.50744e-01
       L  5.04207e+01 -6.83078e-02 -4.71273e-01
       L -2.22039e+00  1.17831e+01  2.08133e+00
6
# CELL(abcABC):  459.05226   459.05226   459.05226    90.00000    90.00000    90.00000  Step:          14  Bead:       0 x_centroid{angstrom}  cell{atomic_unit}
       C -3.48877e-01 -9.59978e-02  7.01256e-02
       O  8.50094e-01  2.52702e-01 -1.63855e-01
       H  3.82830e-02  7.21587e-01 -8.06718e-01
       H -5.31984e-01 -9.22211e-01  7.52097e-01
       L  4.95069e+01 -7.41966e-02 -5.91092e-01
       L -2.31419e+00  1.20260e+01  2.02374e+00
6
# CELL(abcABC):  459.05226   459.05226   459.05226    90.00000    90.00000    90.00000  Step:          15  Bead:       0 x_centroid{angstrom}  cell{atomic_unit}
       C -3.51953e-01 -9.55436e-02  6.91114e-02
       O  8.51995e-01  2.52161e-01 -1.62570e-01
       H  4.54283e-02  7.19599e-01 -8.16381e-01
       H -5.32115e-01 -9.17162e-01  7.53517e-01
       L  4.85405e+01 -9.29662e-02 -6.46248e-01
       L -2.33711e+00  1.22721e+01  1.95176e+00
6
# CELL(abcABC):  459.05226   459.05226   459.05226    90.00000    90.00000    90.00000  Step:          16  Bead:       0 x_centroid{angstrom}  cell{atomic_unit}
       C -3.55766e-01 -9.54062e-02  6.78787e-02
       O  8.54532e-01  2.51892e-01 -1.61349e-01
       H  5.12455e-02  7.16526e-01 -8.23146e-01
       H -5.32212e-01 -9.11564e-01  7.55638e-01
       L  4.75237e+01 -1.39247e-01 -6.71654e-01
       L -2.33602e+00  1.25107e+01  1.89112e+00
6
# CELL(abcABC):  459.05226   459.05226   459.05226    90.00000    90.00000    90.00000  Step:          17  Bead:       0 x_centroid{angstrom}  cell{atomic_unit}
       C -3.59772e-01 -9.52563e-02  6.63870e-02
       O  8.57246e-01  2.51704e-01 -1.60087e-01
       H  5.67083e-02  7.12703e-01 -8.28204e-01
       H -5.32454e-01 -9.06660e-01  7.58483e-01
       L  4.65042e+01 -1.77203e-01 -6.47438e-01
       L -2.35159e+00  1.27502e+01  1.80054e+00
6
# CELL(abcABC):  459.05226   459.05226   459.05226    90.00000    90.00000    90.00000  Step:          18  Bead:       0 x_centroid{angstrom}  cell{atomic_unit}
       C -3.63691e-01 -9.50224e-02  6.49085e-02
       O  8.59534e-01  2.51416e-01 -1.59092e-01
       H  6.70685e-02  7.09348e-01 -8.32345e-01
       H -5.31893e-01 -9.01638e-01  7.64500e-01
       L  4.55210e+01 -1.72047e-01 -6.30817e-01
       L -2.37777e+00  1.29653e+01  1.67792e+00
6
# CELL(abcABC):  459.05226   459.05226   459.05226    90.00000    90.00000    90.00000  Step:          19  Bead:       0 x_centroid{angstrom}  cell{atomic_unit}
       C -3.68081e-01 -9.44770e-02  6.29708e-02
       O  8.61961e-01  2.51153e-01 -1.57864e-01
       H  8.05790e-02  7.04463e-01 -8.35253e-01
       H -5.31026e-01 -8.99212e-01  7.71101e-01
       L  4.44734e+01 -1.73051e-01 -6.48712e-01
       L -2.39585e+00  1.32271e+01  1.51947e+00
6
# CELL(abcABC):  459.05226   459.05226   459.05226    90.00000    90.00000    90.00000  Step:          20  Bead:       0 x_centroid{angstrom}  cell{atomic_unit}
       C -3.72899e-01 -9.37297e-02  6.10054e-02
       O  8.64492e-01  2.50794e-01 -1.56680e-01
       H  9.58348e-02  6.99511e-01 -8.37432e-01
       H -5.28425e-01 -8.97583e-01  7.77971e-01
       L  4.33539e+01 -2.02618e-01 -6.05154e-01
       L -2.43857e+00  1.34468e+01  1.35472e+00
6
# CELL(abcABC):  459.05226   459.05226   459.05226    90.00000    90.00000    90.00000  Step:          21  Bead:       0 x_centroid{angstrom}  cell{atomic_unit}
       C -3.77927e-01 -9.31517e-02  5.89901e-02
       O  8.67078e-01  2.50430e-01 -1.55525e-01
       H  1.12448e-01  6.95294e-01 -8.39021e-01
       H -5.25567e-01 -8.94565e-01  7.85319e-01
       L  4.22254e+01 -2.48407e-01 -5.62253e-01
       L -2.41621e+00  1.36627e+01  1.16176e+00
6
# CELL(abcABC):  459.05226   459.05226   459.05226    90.00000    90.00000    90.00000  Step:          22  Bead:       0 x_centroid{angstrom}  cell{atomic_unit}
       C -3.83359e-01 -9.28054e-02  5.70193e-02
       O  8.69768e-01  2.50348e-01 -1.54470e-01
       H  1.31596e-01  6.90828e-01 -8.38554e-01
       H -5.22085e-01 -8.92950e-01  7.91688e-01
       L  4.10509e+01 -3.19375e-01 -5.08787e-01
       L -2.33775e+00  1.37959e+01  9.37725e-01
6
# CELL(abcABC):  459.05226   459.05226   459.05226    90.00000    90.00000    90.00000  Step:          23  Bead:       0 x_centroid{angstrom}  cell{atomic_unit}
       C -3.88979e-01 -9.29047e-02  5.51724e-02
       O  8.72576e-01  2.50438e-01 -1.53344e-01
       H  1.51430e-01  6.87443e-01 -8.39547e-01
       H -5.18938e-01 -8.89825e-01  7.96916e-01
       L  3.98290e+01 -3.90076e-01 -4.96930e-01
       L -2.20670e+00  1.38826e+01  7.32908e-01
6
# CELL(abcABC):  459.05226   459.05226   459.05226    90.00000    90.00000    90.00000  Step:          24  Bead:       0 x_centroid{angstrom}  cell{atomic_unit}
       C -3.95268e-01 -9.31136e-02  5.36990e-02
       O  8.75746e-01  2.50623e-01 -1.52551e-01
       H  1.72810e-01  6.82960e-01 -8.38269e-01
       H -5.15073e-01 -8.85760e-01  8.00716e-01
       L  3.85606e+01 -4.80401e-01 -4.49090e-01
       L -2.06360e+00  1.39319e+01  5.02960e-01
6
# CELL(abcABC):  459.05226   459.05226   459.05226    90.00000    90.00000    90.00000  Step:          25  Bead:       0 x_centroid{angstrom}  cell{atomic_unit}
       C -4.01912e-01 -9.36524e-02  5.22770e-02
       O  8.79025e-01  2.51047e-01 -1.51700e-01
       H  1.96714e-01  6.77783e-01 -8.36656e-01
       H -5.11265e-01 -8.80851e-01  8.02665e-01
       L  3.72580e+01 -5.66721e-01 -4.07609e-01
       L -1.84991e+00  1.39251e+01  2.28901e-01
6
# CELL(abcABC):  459.05226   459.05226   459.05226    90.00000    90.00000    90.00000  Step:          26  Bead:       0 x_centroid{angstrom}  cell{atomic_unit}
       C -4.09020e-01 -9.48603e-02  5.12487e-02
       O  8.82640e-01  2.51821e-01 -1.51115e-01
       H  2.21607e-01  6.74087e-01 -8.35065e-01
       H -5.08193e-01 -8.74950e-01  8.04179e-01
       L  3.58413e+01 -7.17211e-01 -3.67538e-01
       L -1.64305e+00  1.39039e+01 -7.90470e-02
6
# CELL(abcABC):  459.05226   459.05226   459.05226    90.00000    90.00000    90.00000  Step:          27  Bead:       0 x_centroid{angstrom}  cell{atomic_unit}
       C -4.16428e-01 -9.62562e-02  5.03162e-02
       O  8.86356e-01  2.52759e-01 -1.50552e-01
       H  2.49168e-01  6.71243e-01 -8.33607e-01
       H -5.05825e-01 -8.70196e-01  8.05018e-01
       L  3.43981e+01 -9.16415e-01 -2.89154e-01
       L -1.36599e+00  1.38116e+01 -3.75639e-01
6
# CELL(abcABC):  459.05226   459.05226   459.05226    90.00000    90.00000    90.00000  Step:          28  Bead:       0 x_centroid{angstrom}  cell{atomic_unit}
       C -4.24305e-01 -9.78348e-02  4.95924e-02
       O  8.90346e-01  2.53640e-01 -1.50072e-01
       H  2.78744e-01  6.70274e-01 -8.33707e-01
       H -5.04199e-01 -8.64271e-01  8.06262e-01
       L  3.28911e+01 -1.09608e+00 -2.61432e-01
       L -1.08567e+00  1.37383e+01 -6.59295e-01
6
# CELL(abcABC):  459.05226   459.05226   459.05226    90.00000    90.00000    90.00000  Step:          29  Bead:       0 x_centroid{angstrom}  cell{atomic_unit}
       C -4.32508e-01 -9.98504e-02  4.91139e-02
       O  8.94328e-01  2.54739e-01 -1.49812e-01
       H  3.12432e-01  6.71965e-01 -8.35201e-01
       H -5.02671e-01 -8.59229e-01  8.09500e-01
       L  3.13810e+01 -1.29696e+00 -2.93114e-01
       L -8.05053e-01  1.36576e+01 -9.33126e-01
6
# CELL(abcABC):  459.05226   459.05226   459.05226    90.00000    90.00000    90.00000  Step:          30  Bead:       0 x_centroid{angstrom}  cell{atomic_unit}
       C -4.40984e-01 -1.02169e-01  4.88207e-02
       O  8.98328e-01  2.55839e-01 -1.49669e-01
       H  3.51420e-01  6.78014e-01 -8.38595e-01
       H -5.03459e-01 -8.55036e-01  8.14285e-01
       L  2.98275e+01 -1.40027e+00 -3.13081e-01
       L -5.25315e-01  1.36258e+01 -1.22473e+00
6
# CELL(abcABC):  459.05226   459.05226   459.05226    90.00000    90.00000    90.00000  Step:          31  Bead:       0 x_centroid{angstrom}  cell{atomic_unit}
       C -4.49190e-01 -1.04641e-01  4.85470e-02
       O  9.01745e-01  2.56786e-01 -1.49529e-01
       H  3.96239e-01  6.88942e-01 -8.43789e-01
       H -5.04022e-01 -8.51526e-01  8.20712e-01
       L  2.82713e+01 -1.45872e+00 -3.51009e-01
       L -2.84719e-01  1.36329e+01 -1.53192e+00
6
# CELL(abcABC):  459.05226   459.05226   459.05226    90.00000    90.00000    90.00000  Step:          32  Bead:       0 x_centroid{angstrom}  cell{atomic_unit}
       C -4.57805e-01 -1.07481e-01  4.84475e-02
       O  9.05130e-01  2.57888e-01 -1.49352e-01
       H  4.45375e-01  7.03366e-01 -8.52541e-01
       H -5.03456e-01 -8.49555e-01  8.28048e-01
       L  2.66213e+01 -1.49345e+00 -3.90051e-01
       L -5.81211e-02  1.36092e+01 -1.87530e+00
6
# CELL(abcABC):  459.05226   459.05226   459.05226    90.00000    90.00000    90.00000  Step:          33  Bead:       0 x_centroid{angstrom}  cell{atomic_unit}
       C -4.66631e-01 -1.10439e-01  4.84889e-02
       O  9.08469e-01  2.58809e-01 -1.49258e-01
       H  4.98362e-01  7.21657e-01 -8.61919e-01
       H -5.03517e-01 -8.47225e-01  8.35600e-01
       L  2.49643e+01 -1.50359e+00 -3.97032e-01
       L  1.90404e-01  1.36042e+01 -2.16685e+00
6
# CELL(abcABC):  459.05226   459.05226   459.05226    90.00000    90.00000    90.00000  Step:          34  Bead:       0 x_centroid{angstrom}  cell{atomic_unit}
       C -4.75712e-01 -1.13526e-01  4.90353e-02
       O  9.11890e-01  2.59758e-01 -1.49416e-01
       H  5.52786e-01  7.41901e-01 -8.73187e-01
       H -5.03209e-01 -8.45717e-01  8.42989e-01
       L  2.32578e+01 -1.51923e+00 -3.53487e-01
       L  3.79262e-01  1.35780e+01 -2.45460e+00
6
# CELL(abcABC):  459.05226   459.05226   459.05226    90.00000    90.00000    90.00000  Step:          35  Bead:       0 x_centroid{angstrom}  cell{atomic_unit}
       C -4.84954e-01 -1.16794e-01  4.97128e-02
       O  9.15272e-01  2.60817e-01 -1.49642e-01
       H  6.09841e-01  7.61858e-01 -8.85114e-01
       H -5.02956e-01 -8.43503e-01  8.50517e-01
       L  2.15014e+01 -1.49074e+00 -2.68246e-01
       L  5.63198e-01  1.34857e+01 -2.69260e+00
6
# CELL(abcABC):  459.05226   459.05226   459.05226    90.00000    90.00000    90.00000  Step:          36  Bead:       0 x_centroid{angstrom}  cell{atomic_unit}
       C -4.94309e-01 -1.19883e-01  5.10406e-02
       O  9.18711e-01  2.61861e-01 -1.50143e-01
       H  6.66990e-01  7.80659e-01 -8.98218e-01
       H -5.02282e-01 -8.42022e-01  8.55811e-01
       L  1.96873e+01 -1.39322e+00 -2.27055e-01
       L  6.78069e-01  1.33016e+01 -2.84598e+00
6
# CELL(abcABC):  459.05226   459.05226   459.05226    90.00000    90.00000    90.00000  Step:          37  Bead:       0 x_centroid{angstrom}  cell{atomic_unit}
       C -5.03682e-01 -1.23148e-01  5.23785e-02
       O  9.22175e-01  2.63284e-01 -1.50446e-01
       H  7.24782e-01  7.96006e-01 -9.12338e-01
       H -5.02407e-01 -8.40971e-01  8.58863e-01
       L  1.78091e+01 -1.28345e+00 -1.77936e-01
       L  7.74341e-01  1.30333e+01 -2.99676e+00
6
# CELL(abcABC):  459.05226   459.05226   459.05226    90.00000    90.00000    90.00000  Step:          38  Bead:       0 x_centroid{angstrom}  cell{atomic_unit}
       C -5.12946e-01 -1.26294e-01  5.35135e-02
       O  9.25589e-01  2.64796e-01 -1.50478e-01
       H  7.82362e-01  8.08576e-01 -9.26609e-01
       H -5.02766e-01 -8.39888e-01  8.60208e-01
       L  1.58748e+01 -1.21829e+00 -1.34718e-01
       L  8.14371e-01  1.26756e+01 -3.20194e+00
6
# CELL(abcABC):  459.05226   459.05226   459.05226    90.00000    90.00000    90.00000  Step:          39  Bead:       0 x_centroid{angstrom}  cell{atomic_unit}
       C -5.22166e-01 -1.29256e-01  5.46394e-02
       O  9.29125e-01  2.66558e-01 -1.50522e-01
       H  8.38086e-01  8.15466e-01 -9.38754e-01
       H -5.03718e-01 -8.39283e-01  8.59655e-01
       L  1.39433e+01 -1.12057e+00 -4.14246e-02
       L  8.65373e-01  1.22512e+01 -3.36123e+00
6
# CELL(abcABC):  459.05226   459.05226   459.05226    90.00000    90.00000    90.00000  Step:          40  Bead:       0 x_centroid{angstrom}  cell{atomic_unit}
       C -5.31113e-01 -1.32089e-01  5.59694e-02
       O  9.32471e-01  2.68599e-01 -1.50817e-01
       H  8.92827e-01  8.17335e-01 -9.47819e-01
       H -5.03926e-01 -8.39609e-01  8.57583e-01
       L  1.19707e+01 -9.64821e-01  6.13548e-02
       L  9.41770e-01  1.17755e+01 -3.49849e+00
6
# CELL(abcABC):  459.05226   459.05226   459.05226    90.00000    90.00000    90.00000  Step:          41  Bead:       0 x_centroid{angstrom}  cell{atomic_unit}
       C -5.40045e-01 -1.34604e-01  5.72307e-02
       O  9.35887e-01  2.70816e-01 -1.51180e-01
       H  9.45240e-01  8.14011e-01 -9.54588e-01
       H -5.03092e-01 -8.41303e-01  8.55084e-01
       L  9.96170e+00 -8.22173e-01  1.53283e-01
       L  1.03623e+00  1.12462e+01 -3.58917e+00
6
# CELL(abcABC):  459.05226   459.05226   459.05226    90.00000    90.00000    90.00000  Step:          42  Bead:       0 x_centroid{angstrom}  cell{atomic_unit}
       C -5.48420e-01 -1.36993e-01  5.80472e-02
       O  9.39006e-01  2.73132e-01 -1.51473e-01
       H  9.95579e-01  8.08053e-01 -9.58935e-01
       H -5.02064e-01 -8.43460e-01  8.54314e-01
       L  7.86853e+00 -6.47826e-01  2.26447e-01
       L  1.13576e+00  1.07718e+01 -3.59151e+00
6
# CELL(abcABC):  459.05226   459.05226   459.05226    90.00000    90.00000    90.00000  Step:          43  Bead:       0 x_centroid{angstrom}  cell{atomic_unit}
       C -5.56109e-01 -1.38503e-01  5.82042e-02
       O  9.41546e-01  2.75019e-01 -1.51586e-01
       H  1.04442e+00  8.00151e-01 -9.60647e-01
       H -4.98489e-01 -8.47364e-01  8.55913e-01
       L  5.77050e+00 -5.08931e-01  3.22860e-01
       L  1.21653e+00  1.03431e+01 -3.61171e+00
6
# CELL(abcABC):  459.05226   459.05226   459.05226    90.00000    90.00000    90.00000  Step:          44  Bead:       0 x_centroid{angstrom}  cell{atomic_unit}
       C -5.62826e-01 -1.39488e-01  5.78303e-02
       O  9.43358e-01  2.76607e-01 -1.51614e-01
       H  1.09136e+00  7.91095e-01 -9.59904e-01
       H -4.93072e-01 -8.51653e-01  8.59976e-01
       L  3.66528e+00 -3.56707e-01  4.31502e-01
       L  1.32749e+00  9.93079e+00 -3.56705e+00
6
# CELL(abcABC):  459.05226   459.05226   459.05226    90.00000    90.00000    90.00000  Step:          45  Bead:       0 x_centroid{angstrom}  cell{atomic_unit}
       C -5.68661e-01 -1.39891e-01  5.67588e-02
       O  9.44550e-01  2.77756e-01 -1.51452e-01
       H  1.13486e+00  7.83102e-01 -9.55949e-01
       H -4.84866e-01 -8.56931e-01  8.66135e-01
       L  1.56905e+00 -2.39213e-01  4.72538e-01
       L  1.40890e+00  9.54463e+00 -3.45267e+00
6
# CELL(abcABC):  459.05226   459.05226   459.05226    90.00000    90.00000    90.00000  Step:          46  Bead:       0 x_centroid{angstrom}  cell{atomic_unit}
       C -5.73524e-01 -1.39811e-01  5.48521e-02
       O  9.45195e-01  2.78407e-01 -1.50978e-01
       H  1.17436e+00  7.76313e-01 -9.48907e-01
       H -4.75524e-01 -8.61281e-01  8.74187e-01
       L -5.52315e-01 -1.42042e-01  5.26826e-01
       L  1.46282e+00  9.15587e+00 -3.30729e+00
6
# CELL(abcABC):  459.05226   459.05226   459.05226    90.00000    90.00000    90.00000  Step:          47  Bead:       0 x_centroid{angstrom}  cell{atomic_unit}
       C -5.77262e-01 -1.39232e-01  5.26725e-02
       O  9.45057e-01  2.78562e-01 -1.50534e-01
       H  1.21045e+00  7.71173e-01 -9.40627e-01
       H -4.63749e-01 -8.65333e-01  8.84729e-01
       L -2.68818e+00 -3.97851e-02  5.77750e-01
       L  1.51905e+00  8.75924e+00 -3.17793e+00
6
# CELL(abcABC):  459.05226   459.05226   459.05226    90.00000    90.00000    90.00000  Step:          48  Bead:       0 x_centroid{angstrom}  cell{atomic_unit}
       C -5.79623e-01 -1.38407e-01  4.99692e-02
       O  9.44136e-01  2.78285e-01 -1.50007e-01
       H  1.24168e+00  7.68034e-01 -9.30131e-01
       H -4.51115e-01 -8.67492e-01  8.98016e-01
       L -4.79108e+00  4.47957e-02  5.83280e-01
       L  1.58579e+00  8.42867e+00 -3.07587e+00
6
# CELL(abcABC):  459.05226   459.05226   459.05226    90.00000    90.00000    90.00000  Step:          49  Bead:       0 x_centroid{angstrom}  cell{atomic_unit}
       C -5.80525e-01 -1.37010e-01  4.68308e-02
       O  9.42468e-01  2.77317e-01 -1.49246e-01
       H  1.26714e+00  7.65446e-01 -9.18018e-01
       H -4.38267e-01 -8.66067e-01  9.11177e-01
       L -6.87908e+00  1.46501e-01  5.59178e-01
       L  1.66393e+00  8.09337e+00 -2.95249e+00
6
# CELL(abcABC):  459.05226   459.05226   459.05226    90.00000    90.00000    90.00000  Step:          50  Bead:       0 x_centroid{angstrom}  cell{atomic_unit}
       C -5.80681e-01 -1.35251e-01  4.35332e-02
       O  9.40447e-01  2.75759e-01 -1.48373e-01
       H  1.28834e+00  7.64315e-01 -9.04003e-01
       H -4.24381e-01 -8.61046e-01  9.22572e-01
       L -9.04250e+00  2.02356e-01  5.05598e-01
       L  1.71251e+00  7.82151e+00 -2.86873e+00
6
# CELL(abcABC):  459.05226   459.05226   459.05226    90.00000    90.00000    90.00000  Step:          51  Bead:       0 x_centroid{angstrom}  cell{atomic_unit}
       C -5.79880e-01 -1.33294e-01  4.03398e-02
       O  9.38045e-01  2.73880e-01 -1.47381e-01
       H  1.30454e+00  7.63155e-01 -8.90807e-01
       H -4.10801e-01 -8.53286e-01  9.31689e-01
       L -1.12550e+01  2.83524e-01  4.20731e-01
       L  1.74014e+00  7.55514e+00 -2.77569e+00
6
# CELL(abcABC):  459.05226   459.05226   459.05226    90.00000    90.00000    90.00000  Step:          52  Bead:       0 x_centroid{angstrom}  cell{atomic_unit}
       C -5.78044e-01 -1.31210e-01  3.69530e-02
       O  9.35324e-01  2.71786e-01 -1.46134e-01
       H  1.31475e+00  7.61077e-01 -8.75323e-01
       H -3.98492e-01 -8.42684e-01  9.36737e-01
       L -1.35050e+01  3.54974e-01  3.58514e-01
       L  1.74771e+00  7.26466e+00 -2.68268e+00
6
# CELL(abcABC):  459.05226   459.05226   459.05226    90.00000    90.00000    90.00000  Step:          53  Bead:       0 x_centroid{angstrom}  cell{atomic_unit}
       C -5.75651e-01 -1.28963e-01  3.37517e-02
       O  9.32767e-01  2.69396e-01 -1.44797e-01
       H  1.31914e+00  7.57655e-01 -8.59344e-01
       H -3.89541e-01 -8.27935e-01  9.37641e-01
       L -1.57920e+01  3.52925e-01  3.08119e-01
       L  1.74611e+00  6.97572e+00 -2.54045e+00
6
# CELL(abcABC):  459.05226   459.05226   459.05226    90.00000    90.00000    90.00000  Step:          54  Bead:       0 x_centroid{angstrom}  cell{atomic_unit}
       C -5.72967e-01 -1.26459e-01  3.07031e-02
       O  9.30405e-01  2.66733e-01 -1.43194e-01
       H  1.31806e+00  7.52249e-01 -8.45612e-01
       H -3.81729e-01 -8.09878e-01  9.34724e-01
       L -1.80608e+01  3.31142e-01  2.67465e-01
       L  1.76446e+00  6.60056e+00 -2.37757e+00
6
# CELL(abcABC):  459.05226   459.05226   459.05226    90.00000    90.00000    90.00000  Step:          55  Bead:       0 x_centroid{angstrom}  cell{atomic_unit}
       C -5.69720e-01 -1.23920e-01  2.78559e-02
       O  9.28056e-01  2.63881e-01 -1.41317e-01
       H  1.31092e+00  7.46401e-01 -8.33131e-01
       H -3.74785e-01 -7.88766e-01  9.26306e-01
       L -2.03662e+01  2.98828e-01  2.35474e-01
       L  1.81754e+00  6.17458e+00 -2.21406e+00
6
# CELL(abcABC):  459.05226   459.05226   459.05226    90.00000    90.00000    90.00000  Step:          56  Bead:       0 x_centroid{angstrom}  cell{atomic_unit}
       C -5.65590e-01 -1.21107e-01  2.50529e-02
       O  9.25394e-01  2.60702e-01 -1.38940e-01
       H  1.29967e+00  7.40879e-01 -8.25069e-01
       H -3.69263e-01 -7.66038e-01  9.13834e-01
       L -2.26316e+01  2.56479e-01  2.06837e-01
       L  1.86143e+00  5.72545e+00 -2.05303e+00
6
# CELL(abcABC):  459.05226   459.05226   459.05226    90.00000    90.00000    90.00000  Step:          57  Bead:       0 x_centroid{angstrom}  cell{atomic_unit}
       C -5.60890e-01 -1.18160e-01  2.23009e-02
       O  9.22441e-01  2.57334e-01 -1.36127e-01
       H  1.28595e+00  7.36569e-01 -8.22625e-01
       H -3.63499e-01 -7.43056e-01  8.99495e-01
       L -2.48572e+01  1.67764e-01  1.34027e-01
       L  1.88699e+00  5.21012e+00 -1.90993e+00
6
# CELL(abcABC):  459.05226   459.05226   459.05226    90.00000    90.00000    90.00000  Step:          58  Bead:       0 x_centroid{angstrom}  cell{atomic_unit}
       C -5.55466e-01 -1.15182e-01  1.94804e-02
       O  9.19189e-01  2.53907e-01 -1.32785e-01
       H  1.26914e+00  7.33161e-01 -8.26840e-01
       H -3.58494e-01 -7.20393e-01  8.84220e-01
       L -2.70737e+01  5.48190e-02  6.62872e-02
       L  1.89046e+00  4.71023e+00 -1.74631e+00
6
# CELL(abcABC):  459.05226   459.05226   459.05226    90.00000    90.00000    90.00000  Step:          59  Bead:       0 x_centroid{angstrom}  cell{atomic_unit}
       C -5.49288e-01 -1.11545e-01  1.65237e-02
       O  9.15614e-01  2.50141e-01 -1.29057e-01
       H  1.24966e+00  7.29257e-01 -8.35485e-01
       H -3.54667e-01 -6.99733e-01  8.68897e-01
       L -2.92500e+01 -4.06857e-02 -4.76161e-02
       L  1.82274e+00  4.20166e+00 -1.56741e+00
6
# CELL(abcABC):  459.05226   459.05226   459.05226    90.00000    90.00000    90.00000  Step:          60  Bead:       0 x_centroid{angstrom}  cell{atomic_unit}
       C -5.42400e-01 -1.07448e-01  1.33239e-02
       O  9.11671e-01  2.46255e-01 -1.24908e-01
       H  1.22880e+00  7.25670e-01 -8.49661e-01
       H -3.52059e-01 -6.82931e-01  8.55262e-01
       L -3.14320e+01 -1.44493e-01 -1.17109e-01
       L  1.75342e+00  3.67934e+00 -1.37676e+00
6
# CELL(abcABC):  459.05226   459.05226   459.05226    90.00000    90.00000    90.00000  Step:          61  Bead:       0 x_centroid{angstrom}  cell{atomic_unit}
       C -5.34703e-01 -1.02775e-01  9.82896e-03
       O  9.07399e-01  2.42235e-01 -1.20504e-01
       H  1.20543e+00  7.21515e-01 -8.67903e-01
       H -3.51345e-01 -6.70282e-01  8.45210e-01
       L -3.36572e+01 -2.51661e-01 -2.22578e-01
       L  1.66864e+00  3.11065e+00 -1.18699e+00
6
# CELL(abcABC):  459.05226   459.05226   459.05226    90.00000    90.00000    90.00000  Step:          62  Bead:       0 x_centroid{angstrom}  cell{atomic_unit}
       C -5.26611e-01 -9.76224e-02  5.74513e-03
       O  9.03119e-01  2.38377e-01 -1.15648e-01
       H  1.18013e+00  7.14012e-01 -8.89604e-01
       H -3.53224e-01 -6.62581e-01  8.38487e-01
       L -3.59467e+01 -3.40721e-01 -3.90645e-01
       L  1.56958e+00  2.53020e+00 -1.02096e+00
6
# CELL(abcABC):  459.05226   459.05226   459.05226    90.00000    90.00000    90.00000  Step:          63  Bead:       0 x_centroid{angstrom}  cell{atomic_unit}
       C -5.18011e-01 -9.17692e-02  1.33680e-03
       O  8.98630e-01  2.34564e-01 -1.10816e-01
       H  1.15277e+00  7.04054e-01 -9.11021e-01
       H -3.55775e-01 -6.61398e-01  8.35681e-01
       L -3.82345e+01 -4.79156e-01 -5.36646e-01
       L  1.43163e+00  1.87097e+00 -7.71049e-01
6
# CELL(abcABC):  459.05226   459.05226   459.05226    90.00000    90.00000    90.00000  Step:          64  Bead:       0 x_centroid{angstrom}  cell{atomic_unit}
       C -5.08558e-01 -8.57209e-02 -3.30003e-03
       O  8.93800e-01  2.31112e-01 -1.06146e-01
       H  1.12200e+00  6.91627e-01 -9.31091e-01
       H -3.59653e-01 -6.65803e-01  8.36780e-01
       L -4.05381e+01 -6.06206e-01 -6.57588e-01
       L  1.31986e+00  1.17151e+00 -4.84124e-01
6
# CELL(abcABC):  459.05226   459.05226   459.05226    90.00000    90.00000    90.00000  Step:          65  Bead:       0 x_centroid{angstrom}  cell{atomic_unit}
       C -4.98561e-01 -7.92564e-02 -8.25786e-03
       O  8.88806e-01  2.27697e-01 -1.01637e-01
       H  1.08952e+00  6.76609e-01 -9.49335e-01
       H -3.65750e-01 -6.73170e-01  8.42451e-01
       L -4.28289e+01 -6.43921e-01 -7.25271e-01
       L  1.25477e+00  4.07235e-01 -2.71023e-01
6
# CELL(abcABC):  459.05226   459.05226   459.05226    90.00000    90.00000    90.00000  Step:          66  Bead:       0 x_centroid{angstrom}  cell{atomic_unit}
       C -4.88046e-01 -7.23873e-02 -1.32249e-02