6
# CELL(abcABC):  459.05226   459.05226   459.05226    90.00000    90.00000    90.00000  Step:           0  Bead:       0 x_centroid{angstrom}  cell{atomic_unit}
       C -3.39887e-01 -1.13437e-01  8.06659e-02
       O  8.43483e-01  2.62672e-01 -1.81512e-01
       H -7.35799e-02  8.16467e-01 -6.61432e-01
       H -4.30016e-01 -9.65701e-01  7.62278e-01
       L  6.13458e+01  0.00000e+00  0.00000e+00
       L  0.00000e+00  8.59064e+00  0.00000e+00
6
# CELL(abcABC):  459.05226   459.05226   459.05226    90.00000    90.00000    90.00000  Step:           1  Bead:       0 x_centroid{angstrom}  cell{atomic_unit}
       C -3.40057e-01 -1.13710e-01  8.16587e-02
       O  8.44440e-01  2.63506e-01 -1.82415e-01
       H -8.12956e-02  8.08693e-01 -6.56219e-01
       H -4.35444e-01 -9.67621e-01  7.59371e-01
       L  6.15089e+01 -5.33387e-01  4.50036e-01
       L -1.93589e-01  8.56685e+00 -1.12447e-01
6
# CELL(abcABC):  459.05226   459.05226   459.05226    90.00000    90.00000    90.00000  Step:           2  Bead:       0 x_centroid{angstrom}  cell{atomic_unit}
       C -3.40325e-01 -1.14034e-01  8.24328e-02
       O  8.45146e-01  2.64293e-01 -1.83199e-01
       H -8.49839e-02  8.03488e-01 -6.51596e-01
       H -4.39740e-01 -9.70793e-01  7.57759e-01
       L  6.16787e+01 -1.03338e+00  8.99487e-01
       L -4.12169e-01  8.60850e+00 -1.78795e-01
6
# CELL(abcABC):  459.05226   459.05226   459.05226    90.00000    90.00000    90.00000  Step:           3  Bead:       0 x_centroid{angstrom}  cell{atomic_unit}
       C -3.40577e-01 -1.14169e-01  8.33084e-02
       O  8.45288e-01  2.64989e-01 -1.84107e-01
       H -8.19438e-02  8.00216e-01 -6.47946e-01
       H -4.42033e-01 -9.76764e-01  7.57900e-01
       L  6.18913e+01 -1.50931e+00  1.32649e+00
       L -6.22275e-01  8.73579e+00 -2.36144e-01
6
# CELL(abcABC):  459.05226   459.05226   459.05226    90.00000    90.00000    90.00000  Step:           4  Bead:       0 x_centroid{angstrom}  cell{atomic_unit}
       C -3.40392e-01 -1.14047e-01  8.40940e-02
       O  8.44724e-01  2.65308e-01 -1.84864e-01
       H -7.38279e-02  8.02000e-01 -6.47320e-01
       H -4.43415e-01 -9.84961e-01  7.59747e-01
       L  6.21091e+01 -1.95853e+00  1.70147e+00
       L -8.13800e-01  8.97948e+00 -2.81953e-01
6
# CELL(abcABC):  459.05226   459.05226   459.05226    90.00000    90.00000    90.00000  Step:           5  Bead:       0 x_centroid{angstrom}  cell{atomic_unit}
       C -3.40035e-01 -1.14269e-01  8.47491e-02
       O  8.43872e-01  2.65648e-01 -1.85480e-01
       H -6.47587e-02  8.07464e-01 -6.47732e-01
       H -4.43250e-01 -9.93099e-01  7.61922e-01
       L  6.23278e+01 -2.33347e+00  2.10837e+00
       L -9.83470e-01  9.21427e+00 -3.21628e-01
6
# CELL(abcABC):  459.05226   459.05226   459.05226    90.00000    90.00000    90.00000  Step:           6  Bead:       0 x_centroid{angstrom}  cell{atomic_unit}
       C -3.39947e-01 -1.14650e-01  8.53521e-02
       O  8.43482e-01  2.65976e-01 -1.85908e-01
       H -5.93029e-02  8.13705e-01 -6.48948e-01
       H -4.43600e-01 -9.99926e-01  7.62568e-01
       L  6.25004e+01 -2.69807e+00  2.47448e+00
       L -1.06715e+00  9.42956e+00 -3.58085e-01
6
# CELL(abcABC):  459.05226   459.05226   459.05226    90.00000    90.00000    90.00000  Step:           7  Bead:       0 x_centroid{angstrom}  cell{atomic_unit}
       C -3.40417e-01 -1.15564e-01  8.59493e-02
       O  8.43898e-01  2.66456e-01 -1.86165e-01
       H -6.02613e-02  8.21241e-01 -6.50397e-01
       H -4.43686e-01 -1.00410e+00  7.60817e-01
       L  6.25996e+01 -3.06903e+00  2.80124e+00
       L -1.10827e+00  9.62757e+00 -3.82326e-01
6
# CELL(abcABC):  459.05226   459.05226   459.05226    90.00000    90.00000    90.00000  Step:           8  Bead:       0 x_centroid{angstrom}  cell{atomic_unit}
       C -3.41103e-01 -1.16436e-01  8.67039e-02
       O  8.45062e-01  2.66686e-01 -1.86321e-01
       H -6.89490e-02  8.28507e-01 -6.52423e-01
       H -4.45268e-01 -1.00453e+00  7.56173e-01
       L  6.26001e+01 -3.44825e+00  3.11096e+00
       L -1.15014e+00  9.83529e+00 -4.06937e-01
6
# CELL(abcABC):  459.05226   459.05226   459.05226    90.00000    90.00000    90.00000  Step:           9  Bead:       0 x_centroid{angstrom}  cell{atomic_unit}
       C -3.41867e-01 -1.17491e-01  8.76638e-02
       O  8.46495e-01  2.66937e-01 -1.86623e-01
       H -8.06747e-02  8.34967e-01 -6.52775e-01
       H -4.47135e-01 -1.00230e+00  7.49683e-01
       L  6.25464e+01 -3.80731e+00  3.47591e+00
       L -1.19904e+00  1.00231e+01 -4.09981e-01
6
# CELL(abcABC):  459.05226   459.05226   459.05226    90.00000    90.00000    90.00000  Step:          10  Bead:       0 x_centroid{angstrom}  cell{atomic_unit}
       C -3.42753e-01 -1.18533e-01  8.87741e-02
       O  8.47855e-01  2.67151e-01 -1.87105e-01
       H -9.00587e-02  8.40379e-01 -6.52272e-01
       H -4.48734e-01 -9.98660e-01  7.43423e-01
       L  6.24720e+01 -4.12023e+00  3.83900e+00
       L -1.21242e+00  1.02686e+01 -4.40822e-01
6
# CELL(abcABC):  459.05226   459.05226   459.05226    90.00000    90.00000    90.00000  Step:          11  Bead:       0 x_centroid{angstrom}  cell{atomic_unit}
       C -3.43344e-01 -1.19387e-01  8.96739e-02
       O  8.48470e-01  2.67285e-01 -1.87508e-01
       H -9.30837e-02  8.44133e-01 -6.50452e-01
       H -4.48375e-01 -9.94364e-01  7.37079e-01
       L  6.23866e+01 -4.37567e+00  4.22294e+00
       L -1.23150e+00  1.05127e+01 -4.62240e-01
6
# CELL(abcABC):  459.05226   459.05226   459.05226    90.00000    90.00000    90.00000  Step:          12  Bead:       0 x_centroid{angstrom}  cell{atomic_unit}
       C -3.43738e-01 -1.19900e-01  9.05258e-02
       O  8.48155e-01  2.67316e-01 -1.88009e-01
       H -8.68545e-02  8.47373e-01 -6.47769e-01
       H -4.44842e-01 -9.92046e-01  7.32007e-01
       L  6.23390e+01 -4.57651e+00  4.53650e+00
       L -1.30380e+00  1.08054e+01 -4.22532e-01
6
# CELL(abcABC):  459.05226   459.05226   459.05226    90.00000    90.00000    90.00000  Step:          13  Bead:       0 x_centroid{angstrom}  cell{atomic_unit}
       C -3.43952e-01 -1.20160e-01  9.12008e-02
       O  8.47272e-01  2.67244e-01 -1.88556e-01
       H -7.40141e-02  8.49593e-01 -6.42512e-01
       H -4.41062e-01 -9.90062e-01  7.27169e-01
       L  6.23097e+01 -4.76156e+00  4.87846e+00
       L -1.36438e+00  1.10915e+01 -3.56546e-01
6
# CELL(abcABC):  459.05226   459.05226   459.05226    90.00000    90.00000    90.00000  Step:          14  Bead:       0 x_centroid{angstrom}  cell{atomic_unit}
       C -3.43966e-01 -1.20207e-01  9.17659e-02
       O  8.46154e-01  2.67218e-01 -1.89168e-01
       H -5.93008e-02  8.49687e-01 -6.35599e-01
       H -4.37839e-01 -9.89262e-01  7.22986e-01
       L  6.23159e+01 -4.90071e+00  5.23839e+00
       L -1.43943e+00  1.13797e+01 -2.56774e-01
6
# CELL(abcABC):  459.05226   459.05226   459.05226    90.00000    90.00000    90.00000  Step:          15  Bead:       0 x_centroid{angstrom}  cell{atomic_unit}
       C -3.44138e-01 -1.20230e-01  9.26389e-02
       O  8.45482e-01  2.67286e-01 -1.90030e-01
       H -4.84809e-02  8.47316e-01 -6.26720e-01
       H -4.35898e-01 -9.87790e-01  7.17139e-01
       L  6.22869e+01 -4.94092e+00  5.60350e+00
       L -1.47448e+00  1.15611e+01 -1.60016e-01
6
# CELL(abcABC):  459.05226   459.05226   459.05226    90.00000    90.00000    90.00000  Step:          16  Bead:       0 x_centroid{angstrom}  cell{atomic_unit}
       C -3.45054e-01 -1.19988e-01  9.36209e-02
       O  8.45979e-01  2.67463e-01 -1.91017e-01
       H -4.52370e-02  8.40989e-01 -6.16537e-01
       H -4.36052e-01 -9.87243e-01  7.10685e-01
       L  6.21856e+01 -4.95587e+00  5.92916e+00
       L -1.48735e+00  1.17559e+01 -4.64577e-02
6
# CELL(abcABC):  459.05226   459.05226   459.05226    90.00000    90.00000    90.00000  Step:          17  Bead:       0 x_centroid{angstrom}  cell{atomic_unit}
       C -3.46251e-01 -1.19873e-01  9.42663e-02
       O  8.47291e-01  2.67695e-01 -1.91891e-01
       H -4.98314e-02  8.35038e-01 -6.05067e-01
       H -4.37941e-01 -9.86433e-01  7.05163e-01
       L  6.20423e+01 -4.96210e+00  6.22804e+00
       L -1.47928e+00  1.19010e+01  6.90326e-02
6
# CELL(abcABC):  459.05226   459.05226   459.05226    90.00000    90.00000    90.00000  Step:          18  Bead:       0 x_centroid{angstrom}  cell{atomic_unit}
       C -3.47611e-01 -1.19639e-01  9.50101e-02
       O  8.49043e-01  2.67771e-01 -1.92754e-01
       H -5.90316e-02  8.31753e-01 -5.95541e-01
       H -4.40239e-01 -9.87252e-01  7.00297e-01
       L  6.18496e+01 -4.92295e+00  6.46333e+00
       L -1.47825e+00  1.20826e+01  1.73161e-01
6
# CELL(abcABC):  459.05226   459.05226   459.05226    90.00000    90.00000    90.00000  Step:          19  Bead:       0 x_centroid{angstrom}  cell{atomic_unit}
       C -3.48600e-01 -1.19228e-01  9.58891e-02
       O  8.50430e-01  2.67634e-01 -1.93755e-01
       H -6.75442e-02  8.32180e-01 -5.88629e-01
       H -4.41855e-01 -9.90558e-01  6.98625e-01
       L  6.16344e+01 -4.83865e+00  6.61718e+00
       L -1.47326e+00  1.22707e+01  3.17751e-01
6
# CELL(abcABC):  459.05226   459.05226   459.05226    90.00000    90.00000    90.00000  Step:          20  Bead:       0 x_centroid{angstrom}  cell{atomic_unit}
       C -3.49040e-01 -1.18628e-01  9.64199e-02
       O  8.51035e-01  2.67228e-01 -1.94451e-01
       H -7.14322e-02  8.37736e-01 -5.84429e-01
       H -4.42221e-01 -9.97045e-01  6.99044e-01
       L  6.14268e+01 -4.65629e+00  6.74159e+00
       L -1.46070e+00  1.24996e+01  4.01967e-01
6
# CELL(abcABC):  459.05226   459.05226   459.05226    90.00000    90.00000    90.00000  Step:          21  Bead:       0 x_centroid{angstrom}  cell{atomic_unit}
       C -3.49200e-01 -1.17917e-01  9.67939e-02
       O  8.50794e-01  2.66627e-01 -1.95026e-01
       H -6.76419e-02  8.47996e-01 -5.82978e-01
       H -4.40188e-01 -1.00646e+00  7.02138e-01
       L  6.12583e+01 -4.46476e+00  6.84474e+00
       L -1.44831e+00  1.27384e+01  5.12827e-01
6
# CELL(abcABC):  459.05226   459.05226   459.05226    90.00000    90.00000    90.00000  Step:          22  Bead:       0 x_centroid{angstrom}  cell{atomic_unit}
       C -3.48892e-01 -1.17222e-01  9.73383e-02
       O  8.49852e-01  2.65974e-01 -1.95706e-01
       H -5.93578e-02  8.60539e-01 -5.82728e-01
       H -4.37114e-01 -1.01720e+00  7.06082e-01
       L  6.11251e+01 -4.22505e+00  6.91973e+00
       L -1.46695e+00  1.29859e+01  6.48700e-01
6
# CELL(abcABC):  459.05226   459.05226   459.05226    90.00000    90.00000    90.00000  Step:          23  Bead:       0 x_centroid{angstrom}  cell{atomic_unit}
       C -3.48588e-01 -1.17046e-01  9.78643e-02
       O  8.48980e-01  2.65616e-01 -1.96351e-01
       H -5.19229e-02  8.74637e-01 -5.81737e-01
       H -4.34217e-01 -1.02800e+00  7.09003e-01
       L  6.09574e+01 -3.90985e+00  6.87668e+00
       L -1.49350e+00  1.32248e+01  8.04982e-01
6
# CELL(abcABC):  459.05226   459.05226   459.05226    90.00000    90.00000    90.00000  Step:          24  Bead:       0 x_centroid{angstrom}  cell{atomic_unit}
       C -3.48241e-01 -1.16924e-01  9.86438e-02
       O  8.48499e-01  2.65404e-01 -1.97098e-01
       H -4.93710e-02  8.84841e-01 -5.78573e-01
       H -4.33136e-01 -1.03657e+00  7.08392e-01
       L  6.07475e+01 -3.61347e+00  6.74943e+00
       L -1.52242e+00  1.34344e+01  9.65134e-01
6
# CELL(abcABC):  459.05226   459.05226   459.05226    90.00000    90.00000    90.00000  Step:          25  Bead:       0 x_centroid{angstrom}  cell{atomic_unit}
       C -3.48296e-01 -1.16696e-01  9.97124e-02
       O  8.48869e-01  2.65267e-01 -1.98106e-01
       H -5.24614e-02  8.89729e-01 -5.71171e-01
       H -4.35153e-01 -1.04224e+00  7.04292e-01
       L  6.05435e+01 -3.30557e+00  6.54939e+00
       L -1.52809e+00  1.35559e+01  1.10563e+00
6
# CELL(abcABC):  459.05226   459.05226   459.05226    90.00000    90.00000    90.00000  Step:          26  Bead:       0 x_centroid{angstrom}  cell{atomic_unit}
       C -3.49032e-01 -1.16609e-01  1.00934e-01
       O  8.50174e-01  2.65388e-01 -1.99322e-01
       H -6.13348e-02  8.89716e-01 -5.59673e-01
       H -4.38113e-01 -1.04539e+00  6.97632e-01
       L  6.02768e+01 -2.96567e+00  6.27868e+00
       L -1.48401e+00  1.36182e+01  1.20093e+00
6
# CELL(abcABC):  459.05226   459.05226   459.05226    90.00000    90.00000    90.00000  Step:          27  Bead:       0 x_centroid{angstrom}  cell{atomic_unit}
       C -3.49551e-01 -1.16856e-01  1.02454e-01
       O  8.51338e-01  2.65921e-01 -2.00690e-01
       H -6.95889e-02  8.86120e-01 -5.45844e-01
       H -4.42014e-01 -1.04751e+00  6.87504e-01
       L  5.99996e+01 -2.61551e+00  6.01586e+00
       L -1.43882e+00  1.36120e+01  1.27246e+00
6
# CELL(abcABC):  459.05226   459.05226   459.05226    90.00000    90.00000    90.00000  Step:          28  Bead:       0 x_centroid{angstrom}  cell{atomic_unit}
       C -3.49856e-01 -1.16913e-01  1.04097e-01
       O  8.51921e-01  2.66460e-01 -2.02136e-01
       H -7.22252e-02  8.82302e-01 -5.32242e-01
       H -4.44886e-01 -1.05173e+00  6.77434e-01
       L  5.97501e+01 -2.22873e+00  5.70618e+00
       L -1.40160e+00  1.35458e+01  1.29613e+00
6
# CELL(abcABC):  459.05226   459.05226   459.05226    90.00000    90.00000    90.00000  Step:          29  Bead:       0 x_centroid{angstrom}  cell{atomic_unit}
       C -3.50073e-01 -1.17041e-01  1.05910e-01
       O  8.51857e-01  2.67121e-01 -2.03650e-01
       H -6.68433e-02  8.78892e-01 -5.19603e-01
       H -4.46556e-01 -1.05752e+00  6.67362e-01
       L  5.95156e+01 -1.78533e+00  5.37217e+00
       L -1.36530e+00  1.34945e+01  1.37965e+00
6
# CELL(abcABC):  459.05226   459.05226   459.05226    90.00000    90.00000    90.00000  Step:          30  Bead:       0 x_centroid{angstrom}  cell{atomic_unit}
       C -3.49840e-01 -1.17130e-01  1.07613e-01
       O  8.50843e-01  2.67645e-01 -2.04943e-01
       H -5.45468e-02  8.77806e-01 -5.08659e-01
       H -4.45477e-01 -1.06392e+00  6.56782e-01
       L  5.93509e+01 -1.32062e+00  4.99249e+00
       L -1.29134e+00  1.34759e+01  1.49671e+00
6
# CELL(abcABC):  459.05226   459.05226   459.05226    90.00000    90.00000    90.00000  Step:          31  Bead:       0 x_centroid{angstrom}  cell{atomic_unit}
       C -3.49359e-01 -1.17445e-01  1.08909e-01
       O  8.49456e-01  2.68130e-01 -2.05679e-01
       H -4.01641e-02  8.79011e-01 -4.99970e-01
       H -4.43516e-01 -1.06934e+00  6.44532e-01
       L  5.91818e+01 -8.42311e-01  4.56003e+00
       L -1.23981e+00  1.35000e+01  1.57758e+00
6
# CELL(abcABC):  459.05226   459.05226   459.05226    90.00000    90.00000    90.00000  Step:          32  Bead:       0 x_centroid{angstrom}  cell{atomic_unit}
       C -3.49205e-01 -1.17850e-01  1.10393e-01
       O  8.48389e-01  2.68441e-01 -2.06429e-01
       H -2.76590e-02  8.82548e-01 -4.93188e-01
       H -4.40830e-01 -1.07330e+00  6.32172e-01
       L  5.89979e+01 -3.20545e-01  4.09685e+00
       L -1.21765e+00  1.35433e+01  1.69106e+00
6
# CELL(abcABC):  459.05226   459.05226   459.05226    90.00000    90.00000    90.00000  Step:          33  Bead:       0 x_centroid{angstrom}  cell{atomic_unit}
       C -3.49714e-01 -1.18454e-01  1.11728e-01
       O  8.48173e-01  2.68502e-01 -2.06943e-01
       H -2.11432e-02  8.91194e-01 -4.88093e-01
       H -4.37693e-01 -1.07603e+00  6.19489e-01
       L  5.87187e+01  2.16359e-01  3.66745e+00
       L -1.21622e+00  1.35709e+01  1.81533e+00
6
# CELL(abcABC):  459.05226   459.05226   459.05226    90.00000    90.00000    90.00000  Step:          34  Bead:       0 x_centroid{angstrom}  cell{atomic_unit}
       C -3.50497e-01 -1.19102e-01  1.13309e-01
       O  8.48619e-01  2.68408e-01 -2.07536e-01
       H -2.08205e-02  9.02059e-01 -4.83215e-01
       H -4.35581e-01 -1.07795e+00  6.05389e-01
       L  5.83884e+01  7.06587e-01  3.16411e+00
       L -1.24500e+00  1.35931e+01  1.93193e+00
6
# CELL(abcABC):  459.05226   459.05226   459.05226    90.00000    90.00000    90.00000  Step:          35  Bead:       0 x_centroid{angstrom}  cell{atomic_unit}
       C -3.51695e-01 -1.19844e-01  1.14929e-01
       O  8.49877e-01  2.68283e-01 -2.08107e-01
       H -2.69636e-02  9.14546e-01 -4.79097e-01
       H -4.34889e-01 -1.07991e+00  5.91242e-01
       L  5.79315e+01  1.20704e+00  2.69413e+00
       L -1.21511e+00  1.36143e+01  2.00671e+00
6
# CELL(abcABC):  459.05226   459.05226   459.05226    90.00000    90.00000    90.00000  Step:          36  Bead:       0 x_centroid{angstrom}  cell{atomic_unit}
       C -3.53153e-01 -1.20561e-01  1.16595e-01
       O  8.51611e-01  2.68206e-01 -2.08753e-01
       H -3.69358e-02  9.27711e-01 -4.74253e-01
       H -4.34808e-01 -1.08356e+00  5.77051e-01
       L  5.74324e+01  1.69987e+00  2.24725e+00
       L -1.20270e+00  1.36167e+01  2.00724e+00
6
# CELL(abcABC):  459.05226   459.05226   459.05226    90.00000    90.00000    90.00000  Step:          37  Bead:       0 x_centroid{angstrom}  cell{atomic_unit}
       C -3.54449e-01 -1.21154e-01  1.18162e-01
       O  8.53115e-01  2.68163e-01 -2.09384e-01
       H -4.47366e-02  9.40335e-01 -4.69850e-01
       H -4.35178e-01 -1.08872e+00  5.64227e-01
       L  5.68900e+01  2.17053e+00  1.81495e+00
       L -1.13350e+00  1.36586e+01  1.99488e+00
6
# CELL(abcABC):  459.05226   459.05226   459.05226    90.00000    90.00000    90.00000  Step:          38  Bead:       0 x_centroid{angstrom}  cell{atomic_unit}
       C -3.55631e-01 -1.21659e-01  1.19856e-01
       O  8.54149e-01  2.68328e-01 -2.10107e-01
       H -4.77146e-02  9.50308e-01 -4.65991e-01
       H -4.34316e-01 -1.09558e+00  5.51924e-01
       L  5.63236e+01  2.63247e+00  1.36913e+00
       L -9.81046e-01  1.37165e+01  1.95476e+00
6
# CELL(abcABC):  459.05226   459.05226   459.05226    90.00000    90.00000    90.00000  Step:          39  Bead:       0 x_centroid{angstrom}  cell{atomic_unit}
       C -3.56372e-01 -1.21823e-01  1.21755e-01
       O  8.54271e-01  2.68378e-01 -2.10889e-01
       H -4.21473e-02  9.60196e-01 -4.63179e-01
       H -4.32754e-01 -1.10455e+00  5.39119e-01
       L  5.57809e+01  3.03492e+00  9.49626e-01
       L -8.71618e-01  1.37663e+01  1.97204e+00
6
# CELL(abcABC):  459.05226   459.05226   459.05226    90.00000    90.00000    90.00000  Step:          40  Bead:       0 x_centroid{angstrom}  cell{atomic_unit}
       C -3.56933e-01 -1.21898e-01  1.23421e-01
       O  8.53700e-01  2.68714e-01 -2.11601e-01
       H -2.84501e-02  9.66922e-01 -4.60346e-01
       H -4.30497e-01 -1.11593e+00  5.27978e-01
       L  5.52668e+01  3.39443e+00  5.27176e-01
       L -7.23226e-01  1.37949e+01  1.95375e+00
6
# CELL(abcABC):  459.05226   459.05226   459.05226    90.00000    90.00000    90.00000  Step:          41  Bead:       0 x_centroid{angstrom}  cell{atomic_unit}
       C -3.57697e-01 -1.21734e-01  1.24984e-01
       O  8.52925e-01  2.69267e-01 -2.12265e-01
       H -9.51967e-03  9.67785e-01 -4.55494e-01
       H -4.27827e-01 -1.12770e+00  5.15254e-01
       L  5.47896e+01  3.68819e+00  9.52111e-02
       L -5.86266e-01  1.38139e+01  1.99176e+00
6
# CELL(abcABC):  459.05226   459.05226   459.05226    90.00000    90.00000    90.00000  Step:          42  Bead:       0 x_centroid{angstrom}  cell{atomic_unit}
       C -3.58860e-01 -1.21775e-01  1.26685e-01
       O  8.52553e-01  2.70284e-01 -2.13041e-01
       H  9.38088e-03  9.62499e-01 -4.49715e-01
       H -4.26813e-01 -1.13821e+00  5.01735e-01
       L  5.42983e+01  3.99384e+00 -2.99488e-01
       L -3.81654e-01  1.37824e+01  2.00789e+00
6
# CELL(abcABC):  459.05226   459.05226   459.05226    90.00000    90.00000    90.00000  Step:          43  Bead:       0 x_centroid{angstrom}  cell{atomic_unit}
       C -3.60703e-01 -1.22059e-01  1.28581e-01
       O  8.53078e-01  2.71572e-01 -2.13907e-01
       H  2.32833e-02  9.54245e-01 -4.43105e-01
       H -4.26929e-01 -1.14712e+00  4.86485e-01
       L  5.37452e+01  4.23892e+00 -6.70323e-01
       L -1.47218e-01  1.37041e+01  1.99996e+00
6
# CELL(abcABC):  459.05226   459.05226   459.05226    90.00000    90.00000    90.00000  Step:          44  Bead:       0 x_centroid{angstrom}  cell{atomic_unit}
       C -3.63423e-01 -1.22672e-01  1.30839e-01
       O  8.54603e-01  2.73137e-01 -2.15045e-01
       H  3.29054e-02  9.44358e-01 -4.36290e-01
       H -4.28086e-01 -1.15481e+00  4.70993e-01
       L  5.30778e+01  4.50580e+00 -1.01160e+00
       L  5.59112e-02  1.35489e+01  2.01580e+00
6
# CELL(abcABC):  459.05226   459.05226   459.05226    90.00000    90.00000    90.00000  Step:          45  Bead:       0 x_centroid{angstrom}  cell{atomic_unit}
       C -3.66662e-01 -1.23574e-01  1.33285e-01
       O  8.56935e-01  2.74737e-01 -2.16407e-01
       H  3.69587e-02  9.36378e-01 -4.30160e-01
       H -4.30235e-01 -1.16154e+00  4.57515e-01
       L  5.23145e+01  4.69865e+00 -1.35660e+00
       L  2.14841e-01  1.34307e+01  2.05517e+00
6
# CELL(abcABC):  459.05226   459.05226   459.05226    90.00000    90.00000    90.00000  Step:          46  Bead:       0 x_centroid{angstrom}  cell{atomic_unit}
       C -3.70084e-01 -1.24847e-01  1.35704e-01
       O  8.59698e-01  2.76303e-01 -2.17673e-01
       H  3.76897e-02  9.33259e-01 -4.25717e-01
       H -4.33666e-01 -1.16816e+00  4.44502e-01
       L  5.14557e+01  4.87179e+00 -1.72552e+00
       L  3.89417e-01  1.33737e+01  2.10713e+00
6
# CELL(abcABC):  459.05226   459.05226   459.05226    90.00000    90.00000    90.00000  Step:          47  Bead:       0 x_centroid{angstrom}  cell{atomic_unit}
       C -3.73761e-01 -1.26444e-01  1.38138e-01
       O  8.62559e-01  2.77723e-01 -2.18998e-01
       H  3.88827e-02  9.36603e-01 -4.22874e-01
       H -4.36105e-01 -1.17509e+00  4.33820e-01
       L  5.05612e+01  4.96961e+00 -2.04156e+00
       L  6.20089e-01  1.34261e+01  2.18218e+00
6
# CELL(abcABC):  459.05226   459.05226   459.05226    90.00000    90.00000    90.00000  Step:          48  Bead:       0 x_centroid{angstrom}  cell{atomic_unit}
       C -3.76852e-01 -1.28251e-01  1.40179e-01
       O  8.64733e-01  2.78960e-01 -2.20061e-01
       H  4.24721e-02  9.47306e-01 -4.20726e-01
       H -4.36981e-01 -1.18397e+00  4.24305e-01
       L  4.96585e+01  4.98880e+00 -2.31894e+00
       L  8.18493e-01  1.35083e+01  2.31063e+00
6
# CELL(abcABC):  459.05226   459.05226   459.05226    90.00000    90.00000    90.00000  Step:          49  Bead:       0 x_centroid{angstrom}  cell{atomic_unit}
       C -3.79604e-01 -1.30071e-01  1.42196e-01
       O  8.66300e-01  2.79948e-01 -2.20988e-01
       H  5.10198e-02  9.62662e-01 -4.20174e-01
       H -4.37215e-01 -1.19336e+00  4.14503e-01
       L  4.87053e+01  4.96042e+00 -2.56586e+00
       L  1.04797e+00  1.36231e+01  2.43086e+00
6
# CELL(abcABC):  459.05226   459.05226   459.05226    90.00000    90.00000    90.00000  Step:          50  Bead:       0 x_centroid{angstrom}  cell{atomic_unit}
       C -3.82155e-01 -1.32393e-01  1.44095e-01
       O  8.67292e-01  2.81110e-01 -2.21863e-01
       H  6.57458e-02  9.79705e-01 -4.21101e-01
       H -4.36880e-01 -1.20117e+00  4.06776e-01
       L  4.77072e+01  4.82325e+00 -2.78827e+00
       L  1.29325e+00  1.37559e+01  2.51210e+00
6
# CELL(abcABC):  459.05226   459.05226   459.05226    90.00000    90.00000    90.00000  Step:          51  Bead:       0 x_centroid{angstrom}  cell{atomic_unit}
       C -3.84353e-01 -1.34939e-01  1.46162e-01
       O  8.67690e-01  2.82355e-01 -2.22820e-01
       H  8.50474e-02  9.97046e-01 -4.22754e-01
       H -4.35869e-01 -1.20790e+00  3.99045e-01
       L  4.67012e+01  4.63655e+00 -2.96773e+00
       L  1.50435e+00  1.38653e+01  2.55882e+00
6
# CELL(abcABC):  459.05226   459.05226   459.05226    90.00000    90.00000    90.00000  Step:          52  Bead:       0 x_centroid{angstrom}  cell{atomic_unit}
       C -3.86709e-01 -1.38148e-01  1.48620e-01
       O  8.67822e-01  2.84073e-01 -2.23967e-01
       H  1.10312e-01  1.01177e+00 -4.25674e-01
       H -4.34697e-01 -1.21159e+00  3.90962e-01
       L  4.56777e+01  4.41947e+00 -3.14011e+00
       L  1.66085e+00  1.39475e+01  2.60513e+00
6
# CELL(abcABC):  459.05226   459.05226   459.05226    90.00000    90.00000    90.00000  Step:          53  Bead:       0 x_centroid{angstrom}  cell{atomic_unit}
       C -3.89746e-01 -1.41943e-01  1.51521e-01
       O  8.68244e-01  2.86374e-01 -2.25434e-01
       H  1.39404e-01  1.02101e+00 -4.28213e-01
       H -4.33795e-01 -1.21205e+00  3.82273e-01
       L  4.46458e+01  4.20058e+00 -3.29240e+00
       L  1.79368e+00  1.40360e+01  2.64667e+00
6
# CELL(abcABC):  459.05226   459.05226   459.05226    90.00000    90.00000    90.00000  Step:          54  Bead:       0 x_centroid{angstrom}  cell{atomic_unit}
       C -3.93742e-01 -1.46212e-01  1.54591e-01
       O  8.69380e-01  2.89080e-01 -2.26893e-01
       H  1.71208e-01  1.02650e+00 -4.31824e-01
       H -4.35481e-01 -1.20954e+00  3.72538e-01
       L  4.35777e+01  3.97660e+00 -3.47568e+00
       L  1.88920e+00  1.40960e+01  2.70482e+00
6
# CELL(abcABC):  459.05226   459.05226   459.05226    90.00000    90.00000    90.00000  Step:          55  Bead:       0 x_centroid{angstrom}  cell{atomic_unit}
       C -3.98117e-01 -1.50803e-01  1.58120e-01
       O  8.70847e-01  2.92220e-01 -2.28672e-01
       H  2.03540e-01  1.02812e+00 -4.35096e-01
       H -4.38374e-01 -1.20617e+00  3.62040e-01
       L  4.23836e+01  3.77494e+00 -3.61570e+00
       L  1.96964e+00  1.40763e+01  2.76087e+00
6
# CELL(abcABC):  459.05226   459.05226   459.05226    90.00000    90.00000    90.00000  Step:          56  Bead:       0 x_centroid{angstrom}  cell{atomic_unit}
       C -4.03180e-01 -1.55657e-01  1.62077e-01
       O  8.72708e-01  2.95644e-01 -2.30741e-01
       H  2.37886e-01  1.02902e+00 -4.38393e-01
       H -4.41264e-01 -1.20341e+00  3.51074e-01
       L  4.11401e+01  3.50844e+00 -3.70884e+00
       L  2.00418e+00  1.40283e+01  2.78503e+00
6
# CELL(abcABC):  459.05226   459.05226   459.05226    90.00000    90.00000    90.00000  Step:          57  Bead:       0 x_centroid{angstrom}  cell{atomic_unit}
       C -4.08853e-01 -1.60575e-01  1.65961e-01
       O  8.74848e-01  2.99080e-01 -2.32706e-01
       H  2.74269e-01  1.03205e+00 -4.41405e-01
       H -4.43314e-01 -1.20227e+00  3.39063e-01
       L  3.97798e+01  3.24654e+00 -3.80343e+00
       L  2.06352e+00  1.40746e+01  2.72920e+00
6
# CELL(abcABC):  459.05226   459.05226   459.05226    90.00000    90.00000    90.00000  Step:          58  Bead:       0 x_centroid{angstrom}  cell{atomic_unit}
       C -4.14908e-01 -1.65371e-01  1.70383e-01
       O  8.77214e-01  3.02421e-01 -2.34908e-01
       H  3.11311e-01  1.03861e+00 -4.46863e-01
       H -4.45009e-01 -1.20458e+00  3.26822e-01
       L  3.83622e+01  2.95916e+00 -3.81153e+00
       L  2.11490e+00  1.41513e+01  2.66675e+00
6
# CELL(abcABC):  459.05226   459.05226   459.05226    90.00000    90.00000    90.00000  Step:          59  Bead:       0 x_centroid{angstrom}  cell{atomic_unit}
       C -4.21232e-01 -1.69927e-01  1.74922e-01
       O  8.79627e-01  3.05546e-01 -2.37083e-01
       H  3.49649e-01  1.05077e+00 -4.54249e-01
       H -4.45495e-01 -1.21193e+00  3.14655e-01
       L  3.68725e+01  2.59486e+00 -3.80517e+00
       L  2.13652e+00  1.42687e+01  2.63842e+00
6
# CELL(abcABC):  459.05226   459.05226   459.05226    90.00000    90.00000    90.00000  Step:          60  Bead:       0 x_centroid{angstrom}  cell{atomic_unit}
       C -4.27687e-01 -1.73902e-01  1.79444e-01
       O  8.81976e-01  3.08216e-01 -2.39156e-01
       H  3.88923e-01  1.06898e+00 -4.62491e-01
       H -4.44299e-01 -1.22506e+00  3.01927e-01
       L  3.52701e+01  2.21826e+00 -3.72114e+00
       L  2.19097e+00  1.44820e+01  2.55312e+00
6
# CELL(abcABC):  459.05226   459.05226   459.05226    90.00000    90.00000    90.00000  Step:          61  Bead:       0 x_centroid{angstrom}  cell{atomic_unit}
       C -4.34163e-01 -1.77444e-01  1.84101e-01
       O  8.84200e-01  3.10430e-01 -2.41282e-01
       H  4.28423e-01  1.09357e+00 -4.73206e-01
       H -4.41039e-01 -1.24252e+00  2.90880e-01
       L  3.35782e+01  1.80919e+00 -3.56826e+00
       L  2.24820e+00  1.47560e+01  2.41918e+00
6
# CELL(abcABC):  459.05226   459.05226   459.05226    90.00000    90.00000    90.00000  Step:          62  Bead:       0 x_centroid{angstrom}  cell{atomic_unit}
       C -4.40709e-01 -1.80989e-01  1.88740e-01
       O  8.86390e-01  3.12537e-01 -2.43367e-01
       H  4.66935e-01  1.12198e+00 -4.85276e-01
       H -4.35379e-01 -1.26202e+00  2.80755e-01
       L  3.18255e+01  1.38932e+00 -3.36330e+00
       L  2.28533e+00  1.49646e+01  2.23946e+00
6
# CELL(abcABC):  459.05226   459.05226   459.05226    90.00000    90.00000    90.00000  Step:          63  Bead:       0 x_centroid{angstrom}  cell{atomic_unit}
       C -4.47071e-01 -1.84639e-01  1.93634e-01
       O  8.88259e-01  3.14705e-01 -2.45761e-01
       H  5.06590e-01  1.14931e+00 -4.97118e-01
       H -4.27917e-01 -1.28016e+00  2.72244e-01
       L  3.00432e+01  9.96894e-01 -3.13961e+00
       L  2.26146e+00  1.51587e+01  2.08928e+00
6
# CELL(abcABC):  459.05226   459.05226   459.05226    90.00000    90.00000    90.00000  Step:          64  Bead:       0 x_centroid{angstrom}  cell{atomic_unit}
       C -4.53251e-01 -1.88615e-01  1.98796e-01
       O  8.89848e-01  3.17078e-01 -2.48383e-01
       H  5.47239e-01  1.17306e+00 -5.08655e-01
       H -4.19117e-01 -1.29404e+00  2.63797e-01
       L  2.81843e+01  5.89518e-01 -2.84865e+00
       L  2.24521e+00  1.52708e+01  1.94428e+00
6
# CELL(abcABC):  459.05226   459.05226   459.05226    90.00000    90.00000    90.00000  Step:          65  Bead:       0 x_centroid{angstrom}  cell{atomic_unit}
       C -4.59165e-01 -1.93029e-01  2.04389e-01
       O  8.91394e-01  3.19752e-01 -2.51244e-01
       H  5.86961e-01  1.19254e+00 -5.20087e-01
       H -4.11853e-01 -1.30314e+00  2.53899e-01
       L  2.62425e+01  1.45208e-01 -2.50737e+00
       L  2.22346e+00  1.53182e+01  1.80148e+00
6
# CELL(abcABC):  459.05226   459.05226   459.05226    90.00000    90.00000    90.00000  Step:          66  Bead:       0 x_centroid{angstrom}  cell{atomic_unit}
       C -4.65096e-01 -1.97852e-01  2.10340e-01