6
# CELL(abcABC):  459.05226   459.05226   459.05226    90.00000    90.00000    90.00000  Step:           0  Bead:       0 x_centroid{angstrom}  cell{atomic_unit}
       C -3.39887e-01 -1.13437e-01  8.06659e-02
       O  8.43483e-01  2.62672e-01 -1.81512e-01
       H -7.35799e-02  8.16467e-01 -6.61432e-01
       H -4.30016e-01 -9.65701e-01  7.62278e-01
       L  6.13458e+01  0.00000e+00  0.00000e+00
       L  0.00000e+00  8.59064e+00  0.00000e+00
6
# CELL(abcABC):  459.05226   459.05226   459.05226    90.00000    90.00000    90.00000  Step:           1  Bead:       0 x_centroid{angstrom}  cell{atomic_unit}
       C -3.42166e-01 -1.12746e-01  7.77954e-02
       O  8.44740e-01  2.61591e-01 -1.78891e-01
       H -8.22073e-02  8.19343e-01 -6.73429e-01
       H -4.14060e-01 -9.60359e-01  7.67427e-01
       L  6.13092e+01  8.67146e-01 -5.09884e-01
       L -1.87785e-01  8.99349e+00 -5.05063e-01
6
# CELL(abcABC):  459.05226   459.05226   459.05226    90.00000    90.00000    90.00000  Step:           2  Bead:       0 x_centroid{angstrom}  cell{atomic_unit}
       C -3.44380e-01 -1.11768e-01  7.46604e-02
       O  8.45701e-01  2.60484e-01 -1.76078e-01
       H -8.75231e-02  8.19999e-01 -6.84810e-01
       H -3.97486e-01 -9.55788e-01  7.72048e-01
       L  6.12957e+01  1.76152e+00 -9.90481e-01
       L -4.00171e-01  9.37054e+00 -1.01815e+00
6
# CELL(abcABC):  459.05226   459.05226   459.05226    90.00000    90.00000    90.00000  Step:           3  Bead:       0 x_centroid{angstrom}  cell{atomic_unit}
       C -3.46469e-01 -1.11104e-01  7.12633e-02
       O  8.46336e-01  2.59779e-01 -1.73122e-01
       H -8.82912e-02  8.18442e-01 -6.95497e-01
       H -3.81799e-01 -9.51608e-01  7.76806e-01
       L  6.13661e+01  2.61102e+00 -1.42470e+00
       L -6.70526e-01  9.73972e+00 -1.52715e+00
6
# CELL(abcABC):  459.05226   459.05226   459.05226    90.00000    90.00000    90.00000  Step:           4  Bead:       0 x_centroid{angstrom}  cell{atomic_unit}
       C -3.47921e-01 -1.10273e-01  6.80400e-02
       O  8.46327e-01  2.59187e-01 -1.70446e-01
       H -8.58523e-02  8.12528e-01 -7.03491e-01
       H -3.66677e-01 -9.46844e-01  7.81264e-01
       L  6.14667e+01  3.45077e+00 -1.85388e+00
       L -9.86029e-01  1.00882e+01 -2.05856e+00
6
# CELL(abcABC):  459.05226   459.05226   459.05226    90.00000    90.00000    90.00000  Step:           5  Bead:       0 x_centroid{angstrom}  cell{atomic_unit}
       C -3.48937e-01 -1.09663e-01  6.50871e-02
       O  8.45920e-01  2.58859e-01 -1.67905e-01
       H -8.07006e-02  8.04786e-01 -7.10924e-01
       H -3.53171e-01 -9.41763e-01  7.84039e-01
       L  6.16260e+01  4.24679e+00 -2.28284e+00
       L -1.32305e+00  1.03657e+01 -2.55141e+00
6
# CELL(abcABC):  459.05226   459.05226   459.05226    90.00000    90.00000    90.00000  Step:           6  Bead:       0 x_centroid{angstrom}  cell{atomic_unit}
       C -3.49687e-01 -1.09238e-01  6.23393e-02
       O  8.45336e-01  2.58944e-01 -1.65618e-01
       H -7.46047e-02  7.92626e-01 -7.15054e-01
       H -3.40988e-01 -9.36513e-01  7.85157e-01
       L  6.18250e+01  4.99800e+00 -2.70742e+00
       L -1.64358e+00  1.05410e+01 -3.11226e+00
6
# CELL(abcABC):  459.05226   459.05226   459.05226    90.00000    90.00000    90.00000  Step:           7  Bead:       0 x_centroid{angstrom}  cell{atomic_unit}
       C -3.50479e-01 -1.08778e-01  5.99195e-02
       O  8.45179e-01  2.59276e-01 -1.63656e-01
       H -7.12116e-02  7.76565e-01 -7.16016e-01
       H -3.32381e-01 -9.31672e-01  7.84282e-01
       L  6.20427e+01  5.68189e+00 -3.09587e+00
       L -2.00350e+00  1.07198e+01 -3.60954e+00
6
# CELL(abcABC):  459.05226   459.05226   459.05226    90.00000    90.00000    90.00000  Step:           8  Bead:       0 x_centroid{angstrom}  cell{atomic_unit}
       C -3.50963e-01 -1.08125e-01  5.77430e-02
       O  8.45173e-01  2.59632e-01 -1.61786e-01
       H -7.04226e-02  7.58473e-01 -7.16816e-01
       H -3.27224e-01 -9.27449e-01  7.81761e-01
       L  6.22056e+01  6.34233e+00 -3.44212e+00
       L -2.30108e+00  1.08620e+01 -4.03851e+00
6
# CELL(abcABC):  459.05226   459.05226   459.05226    90.00000    90.00000    90.00000  Step:           9  Bead:       0 x_centroid{angstrom}  cell{atomic_unit}
       C -3.51223e-01 -1.07818e-01  5.57367e-02
       O  8.45321e-01  2.60155e-01 -1.60023e-01
       H -7.23777e-02  7.40197e-01 -7.17400e-01
       H -3.24391e-01 -9.21534e-01  7.78678e-01
       L  6.23080e+01  6.99992e+00 -3.74557e+00
       L -2.64369e+00  1.09406e+01 -4.48949e+00
6
# CELL(abcABC):  459.05226   459.05226   459.05226    90.00000    90.00000    90.00000  Step:          10  Bead:       0 x_centroid{angstrom}  cell{atomic_unit}
       C -3.51324e-01 -1.07649e-01  5.39743e-02
       O  8.45526e-01  2.60655e-01 -1.58480e-01
       H -7.50028e-02  7.24040e-01 -7.18784e-01
       H -3.23652e-01 -9.15701e-01  7.76926e-01
       L  6.23732e+01  7.62015e+00 -3.99977e+00
       L -3.00863e+00  1.10100e+01 -4.88802e+00
6
# CELL(abcABC):  459.05226   459.05226   459.05226    90.00000    90.00000    90.00000  Step:          11  Bead:       0 x_centroid{angstrom}  cell{atomic_unit}
       C -3.51007e-01 -1.07457e-01  5.22116e-02
       O  8.45356e-01  2.60925e-01 -1.56957e-01
       H -7.64931e-02  7.13152e-01 -7.22274e-01
       H -3.23069e-01 -9.11723e-01  7.77540e-01
       L  6.23923e+01  8.14829e+00 -4.20636e+00
       L -3.35501e+00  1.10930e+01 -5.22056e+00
6
# CELL(abcABC):  459.05226   459.05226   459.05226    90.00000    90.00000    90.00000  Step:          12  Bead:       0 x_centroid{angstrom}  cell{atomic_unit}
       C -3.50389e-01 -1.07297e-01  5.07844e-02
       O  8.44780e-01  2.60900e-01 -1.55564e-01
       H -7.45261e-02  7.07903e-01 -7.29513e-01
       H -3.23096e-01 -9.08268e-01  7.79948e-01
       L  6.24227e+01  8.57650e+00 -4.38874e+00
       L -3.66801e+00  1.11777e+01 -5.54689e+00
6
# CELL(abcABC):  459.05226   459.05226   459.05226    90.00000    90.00000    90.00000  Step:          13  Bead:       0 x_centroid{angstrom}  cell{atomic_unit}
       C -3.49451e-01 -1.07375e-01  4.93814e-02
       O  8.43987e-01  2.60866e-01 -1.54290e-01
       H -7.08490e-02  7.07359e-01 -7.38488e-01
       H -3.25253e-01 -9.06480e-01  7.85666e-01
       L  6.24327e+01  8.90285e+00 -4.51544e+00
       L -3.90479e+00  1.12739e+01 -5.88184e+00
6
# CELL(abcABC):  459.05226   459.05226   459.05226    90.00000    90.00000    90.00000  Step:          14  Bead:       0 x_centroid{angstrom}  cell{atomic_unit}
       C -3.48496e-01 -1.07537e-01  4.83001e-02
       O  8.43398e-01  2.60589e-01 -1.53244e-01
       H -6.76616e-02  7.12181e-01 -7.49708e-01
       H -3.30344e-01 -9.05195e-01  7.93381e-01
       L  6.24205e+01  9.18572e+00 -4.64528e+00
       L -4.11977e+00  1.14042e+01 -6.14095e+00
6
# CELL(abcABC):  459.05226   459.05226   459.05226    90.00000    90.00000    90.00000  Step:          15  Bead:       0 x_centroid{angstrom}  cell{atomic_unit}
       C -3.47603e-01 -1.08261e-01  4.79439e-02
       O  8.43208e-01  2.60731e-01 -1.52670e-01
       H -6.60121e-02  7.17339e-01 -7.63828e-01
       H -3.39540e-01 -9.04217e-01  8.02785e-01
       L  6.24739e+01  9.46101e+00 -4.73819e+00
       L -4.30724e+00  1.15507e+01 -6.31079e+00
6
# CELL(abcABC):  459.05226   459.05226   459.05226    90.00000    90.00000    90.00000  Step:          16  Bead:       0 x_centroid{angstrom}  cell{atomic_unit}
       C -3.46515e-01 -1.09121e-01  4.78344e-02
       O  8.43228e-01  2.60912e-01 -1.52166e-01
       H -6.75094e-02  7.23515e-01 -7.79458e-01
       H -3.51259e-01 -9.03245e-01  8.11821e-01
       L  6.24868e+01  9.65917e+00 -4.79080e+00
       L -4.45383e+00  1.17659e+01 -6.45471e+00
6
# CELL(abcABC):  459.05226   459.05226   459.05226    90.00000    90.00000    90.00000  Step:          17  Bead:       0 x_centroid{angstrom}  cell{atomic_unit}
       C -3.45521e-01 -1.10335e-01  4.81446e-02
       O  8.43611e-01  2.61304e-01 -1.51965e-01
       H -7.09888e-02  7.28052e-01 -7.94004e-01
       H -3.65682e-01 -8.99690e-01  8.19528e-01
       L  6.25399e+01  9.75879e+00 -4.77828e+00
       L -4.54600e+00  1.19625e+01 -6.55607e+00
6
# CELL(abcABC):  459.05226   459.05226   459.05226    90.00000    90.00000    90.00000  Step:          18  Bead:       0 x_centroid{angstrom}  cell{atomic_unit}
       C -3.44647e-01 -1.11681e-01  4.86916e-02
       O  8.44238e-01  2.61990e-01 -1.52000e-01
       H -7.57162e-02  7.29849e-01 -8.06055e-01
       H -3.81351e-01 -8.96458e-01  8.25630e-01
       L  6.25934e+01  9.75205e+00 -4.74475e+00
       L -4.54194e+00  1.21933e+01 -6.60675e+00
6
# CELL(abcABC):  459.05226   459.05226   459.05226    90.00000    90.00000    90.00000  Step:          19  Bead:       0 x_centroid{angstrom}  cell{atomic_unit}
       C -3.43745e-01 -1.13039e-01  4.93680e-02
       O  8.44692e-01  2.62923e-01 -1.52149e-01
       H -7.73486e-02  7.28093e-01 -8.16099e-01
       H -3.97738e-01 -8.93402e-01  8.29948e-01
       L  6.26822e+01  9.61755e+00 -4.72586e+00
       L -4.50854e+00  1.24582e+01 -6.56922e+00
6
# CELL(abcABC):  459.05226   459.05226   459.05226    90.00000    90.00000    90.00000  Step:          20  Bead:       0 x_centroid{angstrom}  cell{atomic_unit}
       C -3.42568e-01 -1.14198e-01  5.01203e-02
       O  8.44692e-01  2.63948e-01 -1.52358e-01
       H -7.44631e-02  7.23681e-01 -8.24271e-01
       H -4.14787e-01 -8.91464e-01  8.32384e-01
       L  6.28497e+01  9.38503e+00 -4.67079e+00
       L -4.41368e+00  1.27323e+01 -6.47876e+00
6
# CELL(abcABC):  459.05226   459.05226   459.05226    90.00000    90.00000    90.00000  Step:          21  Bead:       0 x_centroid{angstrom}  cell{atomic_unit}
       C -3.41260e-01 -1.15198e-01  5.12392e-02
       O  8.44381e-01  2.65067e-01 -1.53009e-01
       H -6.83429e-02  7.15726e-01 -8.29165e-01
       H -4.31726e-01 -8.89288e-01  8.34186e-01
       L  6.30246e+01  9.00534e+00 -4.57604e+00
       L -4.27224e+00  1.29874e+01 -6.38200e+00
6
# CELL(abcABC):  459.05226   459.05226   459.05226    90.00000    90.00000    90.00000  Step:          22  Bead:       0 x_centroid{angstrom}  cell{atomic_unit}
       C -3.39899e-01 -1.15746e-01  5.22636e-02
       O  8.43771e-01  2.66199e-01 -1.53741e-01
       H -5.83365e-02  7.02842e-01 -8.31252e-01
       H -4.48514e-01 -8.87740e-01  8.35509e-01
       L  6.33031e+01  8.54696e+00 -4.43968e+00
       L -4.10364e+00  1.32404e+01 -6.20712e+00
6
# CELL(abcABC):  459.05226   459.05226   459.05226    90.00000    90.00000    90.00000  Step:          23  Bead:       0 x_centroid{angstrom}  cell{atomic_unit}
       C -3.38496e-01 -1.16313e-01  5.32320e-02
       O  8.43212e-01  2.67427e-01 -1.54525e-01
       H -4.88406e-02  6.88438e-01 -8.31659e-01
       H -4.66149e-01 -8.85935e-01  8.36616e-01
       L  6.36259e+01  8.02949e+00 -4.28452e+00
       L -3.88607e+00  1.35202e+01 -5.97379e+00
6
# CELL(abcABC):  459.05226   459.05226   459.05226    90.00000    90.00000    90.00000  Step:          24  Bead:       0 x_centroid{angstrom}  cell{atomic_unit}
       C -3.37142e-01 -1.16834e-01  5.42915e-02
       O  8.42912e-01  2.68770e-01 -1.55363e-01
       H -4.16266e-02  6.71373e-01 -8.31518e-01
       H -4.85037e-01 -8.83798e-01  8.36846e-01
       L  6.39371e+01  7.47332e+00 -4.08658e+00
       L -3.64105e+00  1.37421e+01 -5.62322e+00
6
# CELL(abcABC):  459.05226   459.05226   459.05226    90.00000    90.00000    90.00000  Step:          25  Bead:       0 x_centroid{angstrom}  cell{atomic_unit}
       C -3.36070e-01 -1.17606e-01  5.50818e-02
       O  8.43014e-01  2.70234e-01 -1.56014e-01
       H -3.75537e-02  6.54258e-01 -8.31202e-01
       H -5.03825e-01 -8.80565e-01  8.37051e-01
       L  6.42276e+01  6.93107e+00 -3.76902e+00
       L -3.33129e+00  1.39953e+01 -5.21221e+00
6
# CELL(abcABC):  459.05226   459.05226   459.05226    90.00000    90.00000    90.00000  Step:          26  Bead:       0 x_centroid{angstrom}  cell{atomic_unit}
       C -3.35176e-01 -1.18266e-01  5.57154e-02
       O  8.43516e-01  2.71520e-01 -1.56539e-01
       H -3.76927e-02  6.38305e-01 -8.31005e-01
       H -5.22635e-01 -8.76938e-01  8.37201e-01
       L  6.44788e+01  6.31929e+00 -3.40795e+00
       L -2.99948e+00  1.41963e+01 -4.77369e+00
6
# CELL(abcABC):  459.05226   459.05226   459.05226    90.00000    90.00000    90.00000  Step:          27  Bead:       0 x_centroid{angstrom}  cell{atomic_unit}
       C -3.34259e-01 -1.19187e-01  5.59008e-02
       O  8.44058e-01  2.72850e-01 -1.56667e-01
       H -3.97000e-02  6.24584e-01 -8.31616e-01
       H -5.40480e-01 -8.73147e-01  8.37169e-01
       L  6.47233e+01  5.67922e+00 -3.05220e+00
       L -2.65296e+00  1.44536e+01 -4.27224e+00
6
# CELL(abcABC):  459.05226   459.05226   459.05226    90.00000    90.00000    90.00000  Step:          28  Bead:       0 x_centroid{angstrom}  cell{atomic_unit}
       C -3.33133e-01 -1.20269e-01  5.56751e-02
       O  8.44277e-01  2.73938e-01 -1.56503e-01
       H -4.09445e-02  6.15812e-01 -8.33081e-01
       H -5.56451e-01 -8.68534e-01  8.38256e-01
       L  6.49893e+01  4.97915e+00 -2.66976e+00
       L -2.32767e+00  1.47448e+01 -3.78746e+00
6
# CELL(abcABC):  459.05226   459.05226   459.05226    90.00000    90.00000    90.00000  Step:          29  Bead:       0 x_centroid{angstrom}  cell{atomic_unit}
       C -3.32084e-01 -1.21529e-01  5.52093e-02
       O  8.44199e-01  2.74839e-01 -1.56221e-01
       H -3.91672e-02  6.11756e-01 -8.37723e-01
       H -5.69855e-01 -8.63558e-01  8.43413e-01
       L  6.53303e+01  4.26058e+00 -2.21982e+00
       L -1.99261e+00  1.50922e+01 -3.22478e+00
6
# CELL(abcABC):  459.05226   459.05226   459.05226    90.00000    90.00000    90.00000  Step:          30  Bead:       0 x_centroid{angstrom}  cell{atomic_unit}
       C -3.30982e-01 -1.22850e-01  5.49572e-02
       O  8.43841e-01  2.75366e-01 -1.56112e-01
       H -3.53876e-02  6.11946e-01 -8.45036e-01
       H -5.81490e-01 -8.56204e-01  8.51443e-01
       L  6.56843e+01  3.54226e+00 -1.78023e+00
       L -1.60930e+00  1.54926e+01 -2.63113e+00
6
# CELL(abcABC):  459.05226   459.05226   459.05226    90.00000    90.00000    90.00000  Step:          31  Bead:       0 x_centroid{angstrom}  cell{atomic_unit}
       C -3.29885e-01 -1.24260e-01  5.47549e-02
       O  8.43368e-01  2.75700e-01 -1.56014e-01
       H -3.12684e-02  6.15280e-01 -8.52998e-01
       H -5.91544e-01 -8.47872e-01  8.59664e-01
       L  6.59956e+01  2.82771e+00 -1.36547e+00
       L -1.23108e+00  1.59015e+01 -1.96324e+00
6
# CELL(abcABC):  459.05226   459.05226   459.05226    90.00000    90.00000    90.00000  Step:          32  Bead:       0 x_centroid{angstrom}  cell{atomic_unit}
       C -3.28966e-01 -1.25630e-01  5.42903e-02
       O  8.42917e-01  2.75804e-01 -1.55703e-01
       H -2.83012e-02  6.20006e-01 -8.62022e-01
       H -5.98686e-01 -8.37716e-01  8.68655e-01
       L  6.63500e+01  2.09577e+00 -9.15891e-01
       L -8.72805e-01  1.62671e+01 -1.25316e+00
6
# CELL(abcABC):  459.05226   459.05226   459.05226    90.00000    90.00000    90.00000  Step:          33  Bead:       0 x_centroid{angstrom}  cell{atomic_unit}
       C -3.28507e-01 -1.26934e-01  5.33384e-02
       O  8.43037e-01  2.75928e-01 -1.55017e-01
       H -3.03705e-02  6.22592e-01 -8.71360e-01
       H -6.04363e-01 -8.26522e-01  8.77798e-01
       L  6.66647e+01  1.31399e+00 -4.80520e-01
       L -4.96951e-01  1.66364e+01 -4.91196e-01
6
# CELL(abcABC):  459.05226   459.05226   459.05226    90.00000    90.00000    90.00000  Step:          34  Bead:       0 x_centroid{angstrom}  cell{atomic_unit}
       C -3.28228e-01 -1.28270e-01  5.23510e-02
       O  8.43446e-01  2.76130e-01 -1.54266e-01
       H -3.66289e-02  6.24055e-01 -8.79600e-01
       H -6.08341e-01 -8.15038e-01  8.85243e-01
       L  6.70459e+01  5.11944e-01  1.17406e-02
       L -1.27621e-01  1.70369e+01  1.95691e-01
6
# CELL(abcABC):  459.05226   459.05226   459.05226    90.00000    90.00000    90.00000  Step:          35  Bead:       0 x_centroid{angstrom}  cell{atomic_unit}
       C -3.28292e-01 -1.29146e-01  5.14499e-02
       O  8.44013e-01  2.76115e-01 -1.53543e-01
       H -4.37465e-02  6.23098e-01 -8.86569e-01
       H -6.09869e-01 -8.03188e-01  8.90849e-01
       L  6.74490e+01 -2.75100e-01  5.04363e-01
       L  2.32018e-01  1.74337e+01  8.61157e-01
6
# CELL(abcABC):  459.05226   459.05226   459.05226    90.00000    90.00000    90.00000  Step:          36  Bead:       0 x_centroid{angstrom}  cell{atomic_unit}
       C -3.28276e-01 -1.29872e-01  5.05464e-02
       O  8.44207e-01  2.76186e-01 -1.52839e-01
       H -4.88607e-02  6.20009e-01 -8.92133e-01
       H -6.08500e-01 -7.92329e-01  8.95397e-01
       L  6.78918e+01 -1.11080e+00  9.43728e-01
       L  6.39840e-01  1.78088e+01  1.52300e+00
6
# CELL(abcABC):  459.05226   459.05226   459.05226    90.00000    90.00000    90.00000  Step:          37  Bead:       0 x_centroid{angstrom}  cell{atomic_unit}
       C -3.28242e-01 -1.30478e-01  4.97235e-02
       O  8.44061e-01  2.76320e-01 -1.52264e-01
       H -5.18112e-02  6.14455e-01 -8.95646e-01
       H -6.04120e-01 -7.81462e-01  8.98968e-01
       L  6.84034e+01 -1.87122e+00  1.32511e+00
       L  1.02760e+00  1.81506e+01  2.28193e+00
6
# CELL(abcABC):  459.05226   459.05226   459.05226    90.00000    90.00000    90.00000  Step:          38  Bead:       0 x_centroid{angstrom}  cell{atomic_unit}
       C -3.28112e-01 -1.30699e-01  4.92570e-02
       O  8.43332e-01  2.76554e-01 -1.51952e-01
       H -5.10867e-02  6.04301e-01 -8.97389e-01
       H -5.95356e-01 -7.72167e-01  9.00722e-01
       L  6.89578e+01 -2.56808e+00  1.72575e+00
       L  1.43319e+00  1.84399e+01  2.98750e+00
6
# CELL(abcABC):  459.05226   459.05226   459.05226    90.00000    90.00000    90.00000  Step:          39  Bead:       0 x_centroid{angstrom}  cell{atomic_unit}
       C -3.27944e-01 -1.30926e-01  4.84353e-02
       O  8.42222e-01  2.77029e-01 -1.51517e-01
       H -4.76446e-02  5.91690e-01 -8.97623e-01
       H -5.83646e-01 -7.64138e-01  9.03283e-01
       L  6.94713e+01 -3.21428e+00  2.09476e+00
       L  1.81169e+00  1.86404e+01  3.63856e+00
6
# CELL(abcABC):  459.05226   459.05226   459.05226    90.00000    90.00000    90.00000  Step:          40  Bead:       0 x_centroid{angstrom}  cell{atomic_unit}
       C -3.27744e-01 -1.30729e-01  4.76535e-02
       O  8.40998e-01  2.77470e-01 -1.51027e-01
       H -4.43007e-02  5.75257e-01 -8.98421e-01
       H -5.70468e-01 -7.56789e-01  9.05103e-01
       L  7.00433e+01 -3.81690e+00  2.46283e+00
       L  2.17404e+00  1.87396e+01  4.23246e+00
6
# CELL(abcABC):  459.05226   459.05226   459.05226    90.00000    90.00000    90.00000  Step:          41  Bead:       0 x_centroid{angstrom}  cell{atomic_unit}
       C -3.27855e-01 -1.30463e-01  4.65836e-02
       O  8.40047e-01  2.78007e-01 -1.50343e-01
       H -4.28736e-02  5.57362e-01 -8.98883e-01
       H -5.55964e-01 -7.50341e-01  9.06988e-01
       L  7.05935e+01 -4.38372e+00  2.78499e+00
       L  2.53248e+00  1.88482e+01  4.77066e+00
6
# CELL(abcABC):  459.05226   459.05226   459.05226    90.00000    90.00000    90.00000  Step:          42  Bead:       0 x_centroid{angstrom}  cell{atomic_unit}
       C -3.28182e-01 -1.29803e-01  4.50617e-02
       O  8.39392e-01  2.78462e-01 -1.49311e-01
       H -4.44750e-02  5.37653e-01 -9.00093e-01
       H -5.40538e-01 -7.45518e-01  9.09484e-01
       L  7.11315e+01 -4.87369e+00  3.09353e+00
       L  2.85404e+00  1.89904e+01  5.30686e+00
6
# CELL(abcABC):  459.05226   459.05226   459.05226    90.00000    90.00000    90.00000  Step:          43  Bead:       0 x_centroid{angstrom}  cell{atomic_unit}
       C -3.28683e-01 -1.29079e-01  4.35101e-02
       O  8.38961e-01  2.78886e-01 -1.48273e-01
       H -4.88133e-02  5.17444e-01 -9.03305e-01
       H -5.23851e-01 -7.40538e-01  9.14290e-01
       L  7.17137e+01 -5.26214e+00  3.37807e+00
       L  3.14350e+00  1.91414e+01  5.79350e+00
6
# CELL(abcABC):  459.05226   459.05226   459.05226    90.00000    90.00000    90.00000  Step:          44  Bead:       0 x_centroid{angstrom}  cell{atomic_unit}
       C -3.29129e-01 -1.28380e-01  4.18491e-02
       O  8.38565e-01  2.79242e-01 -1.47096e-01
       H -5.36703e-02  4.98861e-01 -9.08323e-01
       H -5.07906e-01 -7.35866e-01  9.20098e-01
       L  7.23483e+01 -5.60214e+00  3.56685e+00
       L  3.42110e+00  1.93207e+01  6.19815e+00
6
# CELL(abcABC):  459.05226   459.05226   459.05226    90.00000    90.00000    90.00000  Step:          45  Bead:       0 x_centroid{angstrom}  cell{atomic_unit}
       C -3.29691e-01 -1.27667e-01  3.97218e-02
       O  8.38335e-01  2.79456e-01 -1.45708e-01
       H -5.93464e-02  4.83044e-01 -9.14461e-01
       H -4.92377e-01 -7.31888e-01  9.29307e-01
       L  7.30544e+01 -5.84242e+00  3.68110e+00
       L  3.64123e+00  1.94716e+01  6.51884e+00
6
# CELL(abcABC):  459.05226   459.05226   459.05226    90.00000    90.00000    90.00000  Step:          46  Bead:       0 x_centroid{angstrom}  cell{atomic_unit}
       C -3.30010e-01 -1.26694e-01  3.77630e-02
       O  8.37825e-01  2.79220e-01 -1.44478e-01
       H -6.47468e-02  4.72360e-01 -9.22551e-01
       H -4.75565e-01 -7.29107e-01  9.41074e-01
       L  7.37702e+01 -6.00323e+00  3.76966e+00
       L  3.81871e+00  1.97367e+01  6.68108e+00
6
# CELL(abcABC):  459.05226   459.05226   459.05226    90.00000    90.00000    90.00000  Step:          47  Bead:       0 x_centroid{angstrom}  cell{atomic_unit}
       C -3.30075e-01 -1.25342e-01  3.59575e-02
       O  8.37081e-01  2.78537e-01 -1.43380e-01
       H -6.97903e-02  4.63172e-01 -9.33422e-01
       H -4.58389e-01 -7.25319e-01  9.56008e-01
       L  7.44633e+01 -6.09583e+00  3.77573e+00
       L  3.94649e+00  2.00844e+01  6.74144e+00
6
# CELL(abcABC):  459.05226   459.05226   459.05226    90.00000    90.00000    90.00000  Step:          48  Bead:       0 x_centroid{angstrom}  cell{atomic_unit}
       C -3.29742e-01 -1.23970e-01  3.41236e-02
       O  8.36155e-01  2.77587e-01 -1.42089e-01
       H -7.50022e-02  4.57206e-01 -9.47829e-01
       H -4.42878e-01 -7.20792e-01  9.71782e-01
       L  7.51650e+01 -6.13688e+00  3.70954e+00
       L  4.05503e+00  2.04188e+01  6.77376e+00
6
# CELL(abcABC):  459.05226   459.05226   459.05226    90.00000    90.00000    90.00000  Step:          49  Bead:       0 x_centroid{angstrom}  cell{atomic_unit}
       C -3.28953e-01 -1.22650e-01  3.23232e-02
       O  8.35014e-01  2.76584e-01 -1.40650e-01
       H -8.16241e-02  4.52200e-01 -9.63530e-01
       H -4.27977e-01 -7.15771e-01  9.86153e-01
       L  7.59126e+01 -6.13621e+00  3.67285e+00
       L  4.08882e+00  2.07596e+01  6.71201e+00
6
# CELL(abcABC):  459.05226   459.05226   459.05226    90.00000    90.00000    90.00000  Step:          50  Bead:       0 x_centroid{angstrom}  cell{atomic_unit}
       C -3.27875e-01 -1.21438e-01  3.07254e-02
       O  8.34048e-01  2.75507e-01 -1.39229e-01
       H -9.14883e-02  4.48480e-01 -9.79881e-01
       H -4.16037e-01 -7.09612e-01  9.99091e-01
       L  7.66535e+01 -6.05355e+00  3.61388e+00
       L  4.10320e+00  2.10677e+01  6.58101e+00
6
# CELL(abcABC):  459.05226   459.05226   459.05226    90.00000    90.00000    90.00000  Step:          51  Bead:       0 x_centroid{angstrom}  cell{atomic_unit}
       C -3.26399e-01 -1.20072e-01  2.97275e-02
       O  8.33055e-01  2.74287e-01 -1.38007e-01
       H -1.03687e-01  4.44669e-01 -9.97437e-01
       H -4.06100e-01 -7.02964e-01  1.00931e+00
       L  7.74109e+01 -5.87753e+00  3.48059e+00
       L  4.14440e+00  2.13482e+01  6.40160e+00
6
# CELL(abcABC):  459.05226   459.05226   459.05226    90.00000    90.00000    90.00000  Step:          52  Bead:       0 x_centroid{angstrom}  cell{atomic_unit}
       C -3.24233e-01 -1.18942e-01  2.91877e-02
       O  8.31756e-01  2.73310e-01 -1.37080e-01
       H -1.18031e-01  4.39089e-01 -1.01373e+00
       H -3.97444e-01 -6.95585e-01  1.01756e+00
       L  7.82681e+01 -5.73018e+00  3.30815e+00
       L  4.20995e+00  2.16439e+01  6.13685e+00
6
# CELL(abcABC):  459.05226   459.05226   459.05226    90.00000    90.00000    90.00000  Step:          53  Bead:       0 x_centroid{angstrom}  cell{atomic_unit}
       C -3.21296e-01 -1.17713e-01  2.87317e-02
       O  8.30124e-01  2.72219e-01 -1.36086e-01
       H -1.33662e-01  4.32315e-01 -1.02866e+00
       H -3.91444e-01 -6.86408e-01  1.02244e+00
       L  7.91912e+01 -5.54193e+00  3.07084e+00
       L  4.25509e+00  2.19642e+01  5.82549e+00
6
# CELL(abcABC):  459.05226   459.05226   459.05226    90.00000    90.00000    90.00000  Step:          54  Bead:       0 x_centroid{angstrom}  cell{atomic_unit}
       C -3.17423e-01 -1.16378e-01  2.83793e-02
       O  8.27757e-01  2.71027e-01 -1.35285e-01
       H -1.47829e-01  4.25368e-01 -1.04074e+00
       H -3.86401e-01 -6.76735e-01  1.02639e+00
       L  8.02339e+01 -5.32043e+00  2.77224e+00
       L  4.24286e+00  2.22785e+01  5.42068e+00
6
# CELL(abcABC):  459.05226   459.05226   459.05226    90.00000    90.00000    90.00000  Step:          55  Bead:       0 x_centroid{angstrom}  cell{atomic_unit}
       C -3.12673e-01 -1.14865e-01  2.79638e-02
       O  8.24703e-01  2.69768e-01 -1.34520e-01
       H -1.60821e-01  4.17734e-01 -1.04978e+00
       H -3.82140e-01 -6.67508e-01  1.02864e+00
       L  8.13557e+01 -5.03060e+00  2.43441e+00
       L  4.20966e+00  2.26352e+01  5.01319e+00
6
# CELL(abcABC):  459.05226   459.05226   459.05226    90.00000    90.00000    90.00000  Step:          56  Bead:       0 x_centroid{angstrom}  cell{atomic_unit}
       C -3.07277e-01 -1.12885e-01  2.75418e-02
       O  8.21254e-01  2.68294e-01 -1.33882e-01
       H -1.74027e-01  4.08225e-01 -1.05595e+00
       H -3.79087e-01 -6.58570e-01  1.03021e+00
       L  8.25664e+01 -4.67880e+00  2.02603e+00
       L  4.12528e+00  2.29875e+01  4.53178e+00
6
# CELL(abcABC):  459.05226   459.05226   459.05226    90.00000    90.00000    90.00000  Step:          57  Bead:       0 x_centroid{angstrom}  cell{atomic_unit}
       C -3.01434e-01 -1.10295e-01  2.69720e-02
       O  8.17563e-01  2.66460e-01 -1.33122e-01
       H -1.86789e-01  3.97263e-01 -1.06014e+00
       H -3.78016e-01 -6.49808e-01  1.02963e+00
       L  8.38692e+01 -4.26728e+00  1.59174e+00
       L  3.99862e+00  2.33940e+01  4.03021e+00
6
# CELL(abcABC):  459.05226   459.05226   459.05226    90.00000    90.00000    90.00000  Step:          58  Bead:       0 x_centroid{angstrom}  cell{atomic_unit}
       C -2.94925e-01 -1.07506e-01  2.62823e-02
       O  8.13691e-01  2.64625e-01 -1.32279e-01
       H -2.01591e-01  3.83641e-01 -1.06244e+00
       H -3.79991e-01 -6.40782e-01  1.02728e+00
       L  8.52710e+01 -3.79711e+00  1.11656e+00
       L  3.86138e+00  2.38309e+01  3.54504e+00
6
# CELL(abcABC):  459.05226   459.05226   459.05226    90.00000    90.00000    90.00000  Step:          59  Bead:       0 x_centroid{angstrom}  cell{atomic_unit}
       C -2.88085e-01 -1.04677e-01  2.55983e-02
       O  8.09948e-01  2.62833e-01 -1.31512e-01
       H -2.20125e-01  3.69111e-01 -1.06266e+00
       H -3.84263e-01 -6.32064e-01  1.02403e+00
       L  8.67230e+01 -3.28971e+00  6.41351e-01
       L  3.70126e+00  2.43240e+01  3.01598e+00
6
# CELL(abcABC):  459.05226   459.05226   459.05226    90.00000    90.00000    90.00000  Step:          60  Bead:       0 x_centroid{angstrom}  cell{atomic_unit}
       C -2.81012e-01 -1.01828e-01  2.43729e-02
       O  8.06341e-01  2.61115e-01 -1.30492e-01
       H -2.40852e-01  3.52924e-01 -1.06155e+00
       H -3.91290e-01 -6.23141e-01  1.02186e+00
       L  8.82360e+01 -2.78434e+00  1.43485e-01
       L  3.52073e+00  2.48994e+01  2.53889e+00
6
# CELL(abcABC):  459.05226   459.05226   459.05226    90.00000    90.00000    90.00000  Step:          61  Bead:       0 x_centroid{angstrom}  cell{atomic_unit}
       C -2.73721e-01 -9.89998e-02  2.32773e-02
       O  8.03073e-01  2.59425e-01 -1.29618e-01
       H -2.66016e-01  3.36148e-01 -1.06084e+00
       H -4.01850e-01 -6.13857e-01  1.02088e+00
       L  8.97565e+01 -2.23864e+00 -3.77373e-01
       L  3.32421e+00  2.54790e+01  2.06209e+00
6
# CELL(abcABC):  459.05226   459.05226   459.05226    90.00000    90.00000    90.00000  Step:          62  Bead:       0 x_centroid{angstrom}  cell{atomic_unit}
       C -2.66252e-01 -9.60211e-02  2.19119e-02
       O  8.00242e-01  2.57609e-01 -1.28623e-01
       H -2.98716e-01  3.18606e-01 -1.05850e+00
       H -4.13974e-01 -6.03645e-01  1.01956e+00
       L  9.13780e+01 -1.67359e+00 -8.76049e-01
       L  3.11026e+00  2.61304e+01  1.54937e+00
6
# CELL(abcABC):  459.05226   459.05226   459.05226    90.00000    90.00000    90.00000  Step:          63  Bead:       0 x_centroid{angstrom}  cell{atomic_unit}
       C -2.58661e-01 -9.30376e-02  2.00180e-02
       O  7.97928e-01  2.55781e-01 -1.27422e-01
       H -3.38644e-01  3.00068e-01 -1.05575e+00
       H -4.28586e-01 -5.92360e-01  1.02086e+00
       L  9.31408e+01 -1.12622e+00 -1.37390e+00
       L  2.84022e+00  2.69103e+01  1.05351e+00
6
# CELL(abcABC):  459.05226   459.05226   459.05226    90.00000    90.00000    90.00000  Step:          64  Bead:       0 x_centroid{angstrom}  cell{atomic_unit}
       C -2.50986e-01 -8.98869e-02  1.79624e-02
       O  7.96191e-01  2.53902e-01 -1.26169e-01
       H -3.85904e-01  2.80178e-01 -1.05272e+00
       H -4.46099e-01 -5.80995e-01  1.02301e+00
       L  9.50279e+01 -5.53897e-01 -1.88939e+00
       L  2.58760e+00  2.78050e+01  5.17913e-01
6
# CELL(abcABC):  459.05226   459.05226   459.05226    90.00000    90.00000    90.00000  Step:          65  Bead:       0 x_centroid{angstrom}  cell{atomic_unit}
       C -2.43465e-01 -8.67308e-02  1.56081e-02
       O  7.95247e-01  2.52132e-01 -1.24767e-01
       H -4.41412e-01  2.58590e-01 -1.05010e+00
       H -4.66183e-01 -5.69730e-01  1.02673e+00
       L  9.70346e+01 -3.39057e-02 -2.37031e+00
       L  2.33438e+00  2.87820e+01 -1.66415e-02
6
# CELL(abcABC):  459.05226   459.05226   459.05226    90.00000    90.00000    90.00000  Step:          66  Bead:       0 x_centroid{angstrom}  cell{atomic_unit}
       C -2.36729e-01 -8.34414e-02  1.31293e-02