6
# CELL(abcABC):  459.05226   459.05226   459.05226    90.00000    90.00000    90.00000  Step:           0  Bead:       0 x_centroid{angstrom}  cell{atomic_unit}
       C -3.39887e-01 -1.13437e-01  8.06659e-02
       O  8.43483e-01  2.62672e-01 -1.81512e-01
       H -7.35799e-02  8.16467e-01 -6.61432e-01
       H -4.30016e-01 -9.65701e-01  7.62278e-01
       L  6.13458e+01  0.00000e+00  0.00000e+00
       L  0.00000e+00  8.59064e+00  0.00000e+00
6
# CELL(abcABC):  459.05226   459.05226   459.05226    90.00000    90.00000    90.00000  Step:           1  Bead:       0 x_centroid{angstrom}  cell{atomic_unit}
       C -3.38955e-01 -1.16138e-01  7.97693e-02
       O  8.42936e-01  2.65403e-01 -1.80691e-01
       H -7.40224e-02  8.15748e-01 -6.60192e-01
       H -4.31770e-01 -9.76153e-01  7.58584e-01
       L  6.10966e+01 -6.17051e-01 -2.54371e-01
       L -1.58821e-01  9.19697e+00  4.46101e-01
6
# CELL(abcABC):  459.05226   459.05226   459.05226    90.00000    90.00000    90.00000  Step:           2  Bead:       0 x_centroid{angstrom}  cell{atomic_unit}
       C -3.37773e-01 -1.18770e-01  7.90132e-02
       O  8.42196e-01  2.68082e-01 -1.79974e-01
       H -7.55434e-02  8.14592e-01 -6.57644e-01
       H -4.32375e-01 -9.86139e-01  7.53582e-01
       L  6.08377e+01 -1.23050e+00 -5.32385e-01
       L -2.87757e-01  9.77662e+00  8.59213e-01
6
# CELL(abcABC):  459.05226   459.05226   459.05226    90.00000    90.00000    90.00000  Step:           3  Bead:       0 x_centroid{angstrom}  cell{atomic_unit}
       C -3.36672e-01 -1.21386e-01  7.84763e-02
       O  8.41641e-01  2.70604e-01 -1.79329e-01
       H -7.80357e-02  8.14769e-01 -6.54662e-01
       H -4.33982e-01 -9.95185e-01  7.46688e-01
       L  6.05604e+01 -1.83696e+00 -8.06682e-01
       L -3.86097e-01  1.03833e+01  1.26390e+00
6
# CELL(abcABC):  459.05226   459.05226   459.05226    90.00000    90.00000    90.00000  Step:           4  Bead:       0 x_centroid{angstrom}  cell{atomic_unit}
       C -3.35470e-01 -1.24013e-01  7.80603e-02
       O  8.41126e-01  2.73177e-01 -1.78706e-01
       H -8.12245e-02  8.14766e-01 -6.51019e-01
       H -4.36716e-01 -1.00469e+00  7.38063e-01
       L  6.02426e+01 -2.41933e+00 -1.06661e+00
       L -5.18421e-01  1.09155e+01  1.62420e+00
6
# CELL(abcABC):  459.05226   459.05226   459.05226    90.00000    90.00000    90.00000  Step:           5  Bead:       0 x_centroid{angstrom}  cell{atomic_unit}
       C -3.34147e-01 -1.26603e-01  7.80335e-02
       O  8.40414e-01  2.75716e-01 -1.78295e-01
       H -8.35832e-02  8.14836e-01 -6.47363e-01
       H -4.38564e-01 -1.01416e+00  7.28161e-01
       L  5.98937e+01 -2.99604e+00 -1.30403e+00
       L -6.18622e-01  1.14197e+01  1.93564e+00
6
# CELL(abcABC):  459.05226   459.05226   459.05226    90.00000    90.00000    90.00000  Step:           6  Bead:       0 x_centroid{angstrom}  cell{atomic_unit}
       C -3.32706e-01 -1.28921e-01  7.83244e-02
       O  8.39444e-01  2.78165e-01 -1.78136e-01
       H -8.45545e-02  8.13746e-01 -6.43958e-01
       H -4.39130e-01 -1.02429e+00  7.18777e-01
       L  5.95405e+01 -3.54380e+00 -1.61754e+00
       L -7.24002e-01  1.19315e+01  2.21660e+00
6
# CELL(abcABC):  459.05226   459.05226   459.05226    90.00000    90.00000    90.00000  Step:           7  Bead:       0 x_centroid{angstrom}  cell{atomic_unit}
       C -3.31702e-01 -1.31386e-01  7.87206e-02
       O  8.38643e-01  2.80712e-01 -1.78099e-01
       H -8.35846e-02  8.11586e-01 -6.40053e-01
       H -4.39092e-01 -1.03320e+00  7.09613e-01
       L  5.92434e+01 -4.04867e+00 -1.88724e+00
       L -8.75016e-01  1.24680e+01  2.40161e+00
6
# CELL(abcABC):  459.05226   459.05226   459.05226    90.00000    90.00000    90.00000  Step:           8  Bead:       0 x_centroid{angstrom}  cell{atomic_unit}
       C -3.30714e-01 -1.34395e-01  7.89804e-02
       O  8.37838e-01  2.83551e-01 -1.77907e-01
       H -8.33675e-02  8.10371e-01 -6.37005e-01
       H -4.38045e-01 -1.04123e+00  7.00525e-01
       L  5.89277e+01 -4.50184e+00 -2.18891e+00
       L -1.05169e+00  1.29937e+01  2.52451e+00
6
# CELL(abcABC):  459.05226   459.05226   459.05226    90.00000    90.00000    90.00000  Step:           9  Bead:       0 x_centroid{angstrom}  cell{atomic_unit}
       C -3.29971e-01 -1.37527e-01  7.93224e-02
       O  8.37077e-01  2.86396e-01 -1.77688e-01
       H -8.22189e-02  8.10092e-01 -6.34966e-01
       H -4.35666e-01 -1.04888e+00  6.91063e-01
       L  5.86017e+01 -4.90744e+00 -2.50837e+00
       L -1.26101e+00  1.35518e+01  2.61225e+00
6
# CELL(abcABC):  459.05226   459.05226   459.05226    90.00000    90.00000    90.00000  Step:          10  Bead:       0 x_centroid{angstrom}  cell{atomic_unit}
       C -3.29177e-01 -1.40587e-01  7.92831e-02
       O  8.36160e-01  2.89065e-01 -1.77036e-01
       H -8.05675e-02  8.11280e-01 -6.34443e-01
       H -4.31943e-01 -1.05608e+00  6.80783e-01
       L  5.82734e+01 -5.27103e+00 -2.82979e+00
       L -1.44472e+00  1.41200e+01  2.69510e+00
6
# CELL(abcABC):  459.05226   459.05226   459.05226    90.00000    90.00000    90.00000  Step:          11  Bead:       0 x_centroid{angstrom}  cell{atomic_unit}
       C -3.28543e-01 -1.43640e-01  7.94277e-02
       O  8.35348e-01  2.91620e-01 -1.76442e-01
       H -7.97329e-02  8.13539e-01 -6.35161e-01
       H -4.27216e-01 -1.06263e+00  6.70513e-01
       L  5.79976e+01 -5.62453e+00 -3.12571e+00
       L -1.59411e+00  1.46877e+01  2.69681e+00
6
# CELL(abcABC):  459.05226   459.05226   459.05226    90.00000    90.00000    90.00000  Step:          12  Bead:       0 x_centroid{angstrom}  cell{atomic_unit}
       C -3.28116e-01 -1.46613e-01  7.97215e-02
       O  8.34770e-01  2.93998e-01 -1.75948e-01
       H -8.15789e-02  8.17140e-01 -6.37223e-01
       H -4.21112e-01 -1.06871e+00  6.61336e-01
       L  5.77651e+01 -5.90907e+00 -3.31586e+00
       L -1.67186e+00  1.52479e+01  2.67894e+00
6
# CELL(abcABC):  459.05226   459.05226   459.05226    90.00000    90.00000    90.00000  Step:          13  Bead:       0 x_centroid{angstrom}  cell{atomic_unit}
       C -3.27833e-01 -1.49674e-01  8.00096e-02
       O  8.34459e-01  2.96350e-01 -1.75402e-01
       H -8.72374e-02  8.20554e-01 -6.39641e-01
       H -4.13724e-01 -1.07318e+00  6.51744e-01
       L  5.75431e+01 -6.11105e+00 -3.46660e+00
       L -1.74312e+00  1.58117e+01  2.68515e+00
6
# CELL(abcABC):  459.05226   459.05226   459.05226    90.00000    90.00000    90.00000  Step:          14  Bead:       0 x_centroid{angstrom}  cell{atomic_unit}
       C -3.27558e-01 -1.52803e-01  8.01844e-02
       O  8.34175e-01  2.98797e-01 -1.74931e-01
       H -9.34625e-02  8.23383e-01 -6.40569e-01
       H -4.06163e-01 -1.07781e+00  6.43206e-01
       L  5.73034e+01 -6.24058e+00 -3.59778e+00
       L -1.72368e+00  1.63782e+01  2.64690e+00
6
# CELL(abcABC):  459.05226   459.05226   459.05226    90.00000    90.00000    90.00000  Step:          15  Bead:       0 x_centroid{angstrom}  cell{atomic_unit}
       C -3.27519e-01 -1.55752e-01  8.02150e-02
       O  8.33962e-01  3.01250e-01 -1.74508e-01
       H -9.88447e-02  8.24193e-01 -6.40668e-01
       H -3.97763e-01 -1.08269e+00  6.36347e-01
       L  5.70542e+01 -6.30496e+00 -3.70563e+00
       L -1.64678e+00  1.69439e+01  2.51410e+00
6
# CELL(abcABC):  459.05226   459.05226   459.05226    90.00000    90.00000    90.00000  Step:          16  Bead:       0 x_centroid{angstrom}  cell{atomic_unit}
       C -3.27265e-01 -1.58672e-01  8.02055e-02
       O  8.33388e-01  3.03858e-01 -1.74176e-01
       H -1.02855e-01  8.23810e-01 -6.39792e-01
       H -3.87567e-01 -1.08921e+00  6.30424e-01
       L  5.67678e+01 -6.30020e+00 -3.75161e+00
       L -1.54421e+00  1.74915e+01  2.35619e+00
6
# CELL(abcABC):  459.05226   459.05226   459.05226    90.00000    90.00000    90.00000  Step:          17  Bead:       0 x_centroid{angstrom}  cell{atomic_unit}
       C -3.26790e-01 -1.61419e-01  7.99940e-02
       O  8.32390e-01  3.06370e-01 -1.73886e-01
       H -1.04239e-01  8.24082e-01 -6.37123e-01
       H -3.75895e-01 -1.09696e+00  6.25784e-01
       L  5.64860e+01 -6.24494e+00 -3.79798e+00
       L -1.45308e+00  1.80704e+01  2.21571e+00
6
# CELL(abcABC):  459.05226   459.05226   459.05226    90.00000    90.00000    90.00000  Step:          18  Bead:       0 x_centroid{angstrom}  cell{atomic_unit}
       C -3.26554e-01 -1.64236e-01  7.98494e-02
       O  8.31464e-01  3.09008e-01 -1.73720e-01
       H -1.04653e-01  8.24228e-01 -6.32509e-01
       H -3.63503e-01 -1.10577e+00  6.20336e-01
       L  5.61635e+01 -6.10587e+00 -3.79507e+00
       L -1.31238e+00  1.85983e+01  2.05585e+00
6
# CELL(abcABC):  459.05226   459.05226   459.05226    90.00000    90.00000    90.00000  Step:          19  Bead:       0 x_centroid{angstrom}  cell{atomic_unit}
       C -3.26751e-01 -1.66883e-01  7.95451e-02
       O  8.30847e-01  3.11597e-01 -1.73533e-01
       H -1.05400e-01  8.23198e-01 -6.26638e-01
       H -3.50491e-01 -1.11468e+00  6.15162e-01
       L  5.58253e+01 -5.92995e+00 -3.69578e+00
       L -1.20672e+00  1.91274e+01  1.90323e+00
6
# CELL(abcABC):  459.05226   459.05226   459.05226    90.00000    90.00000    90.00000  Step:          20  Bead:       0 x_centroid{angstrom}  cell{atomic_unit}
       C -3.27058e-01 -1.69638e-01  7.91707e-02
       O  8.30386e-01  3.14265e-01 -1.73214e-01
       H -1.06678e-01  8.20498e-01 -6.21021e-01
       H -3.38091e-01 -1.12190e+00  6.08899e-01
       L  5.54820e+01 -5.72342e+00 -3.50274e+00
       L -1.10764e+00  1.96498e+01  1.77226e+00
6
# CELL(abcABC):  459.05226   459.05226   459.05226    90.00000    90.00000    90.00000  Step:          21  Bead:       0 x_centroid{angstrom}  cell{atomic_unit}
       C -3.27297e-01 -1.72269e-01  7.88415e-02
       O  8.29900e-01  3.17000e-01 -1.72856e-01
       H -1.07405e-01  8.15668e-01 -6.15242e-01
       H -3.26652e-01 -1.12951e+00  6.01390e-01
       L  5.51157e+01 -5.47672e+00 -3.36277e+00
       L -1.01168e+00  2.00761e+01  1.56802e+00
6
# CELL(abcABC):  459.05226   459.05226   459.05226    90.00000    90.00000    90.00000  Step:          22  Bead:       0 x_centroid{angstrom}  cell{atomic_unit}
       C -3.27556e-01 -1.74938e-01  7.85738e-02
       O  8.29470e-01  3.19760e-01 -1.72510e-01
       H -1.08135e-01  8.10241e-01 -6.10540e-01
       H -3.15885e-01 -1.13647e+00  5.94401e-01
       L  5.47358e+01 -5.20763e+00 -3.17885e+00
       L -8.83070e-01  2.05308e+01  1.36683e+00
6
# CELL(abcABC):  459.05226   459.05226   459.05226    90.00000    90.00000    90.00000  Step:          23  Bead:       0 x_centroid{angstrom}  cell{atomic_unit}
       C -3.27633e-01 -1.78019e-01  7.88189e-02
       O  8.29009e-01  3.22788e-01 -1.72435e-01
       H -1.09267e-01  8.05497e-01 -6.07000e-01
       H -3.06383e-01 -1.14349e+00  5.86731e-01
       L  5.43356e+01 -4.88758e+00 -2.93477e+00
       L -7.33222e-01  2.09601e+01  1.17045e+00
6
# CELL(abcABC):  459.05226   459.05226   459.05226    90.00000    90.00000    90.00000  Step:          24  Bead:       0 x_centroid{angstrom}  cell{atomic_unit}
       C -3.27441e-01 -1.81159e-01  7.90883e-02
       O  8.28424e-01  3.25774e-01 -1.72405e-01
       H -1.11277e-01  8.02053e-01 -6.03345e-01
       H -2.97258e-01 -1.15047e+00  5.79332e-01
       L  5.39054e+01 -4.48999e+00 -2.67523e+00
       L -5.03828e-01  2.13653e+01  9.95541e-01
6
# CELL(abcABC):  459.05226   459.05226   459.05226    90.00000    90.00000    90.00000  Step:          25  Bead:       0 x_centroid{angstrom}  cell{atomic_unit}
       C -3.27234e-01 -1.84503e-01  7.93720e-02
       O  8.27747e-01  3.28734e-01 -1.72426e-01
       H -1.12267e-01  8.00086e-01 -5.99970e-01
       H -2.87841e-01 -1.15610e+00  5.72855e-01
       L  5.34412e+01 -4.03029e+00 -2.37128e+00
       L -3.36571e-01  2.17691e+01  8.05731e-01
6
# CELL(abcABC):  459.05226   459.05226   459.05226    90.00000    90.00000    90.00000  Step:          26  Bead:       0 x_centroid{angstrom}  cell{atomic_unit}
       C -3.27037e-01 -1.87672e-01  7.99150e-02
       O  8.27142e-01  3.31453e-01 -1.72510e-01
       H -1.13890e-01  8.00189e-01 -5.99048e-01
       H -2.78820e-01 -1.16209e+00  5.66695e-01
       L  5.30202e+01 -3.54500e+00 -2.01644e+00
       L -1.68363e-01  2.21480e+01  6.24031e-01
6
# CELL(abcABC):  459.05226   459.05226   459.05226    90.00000    90.00000    90.00000  Step:          27  Bead:       0 x_centroid{angstrom}  cell{atomic_unit}
       C -3.26665e-01 -1.90999e-01  8.06044e-02
       O  8.26334e-01  3.34126e-01 -1.72622e-01
       H -1.14611e-01  8.02155e-01 -5.99137e-01
       H -2.69566e-01 -1.16734e+00  5.60242e-01
       L  5.25699e+01 -3.00230e+00 -1.64187e+00
       L  2.86224e-02  2.25682e+01  4.52624e-01
6
# CELL(abcABC):  459.05226   459.05226   459.05226    90.00000    90.00000    90.00000  Step:          28  Bead:       0 x_centroid{angstrom}  cell{atomic_unit}
       C -3.25971e-01 -1.94357e-01  8.14704e-02
       O  8.25426e-01  3.36732e-01 -1.72754e-01
       H -1.15918e-01  8.06464e-01 -6.00438e-01
       H -2.61973e-01 -1.17352e+00  5.53221e-01
       L  5.21293e+01 -2.43889e+00 -1.26808e+00
       L  2.22897e-01  2.29532e+01  2.61350e-01
6
# CELL(abcABC):  459.05226   459.05226   459.05226    90.00000    90.00000    90.00000  Step:          29  Bead:       0 x_centroid{angstrom}  cell{atomic_unit}
       C -3.25203e-01 -1.97991e-01  8.23130e-02
       O  8.24703e-01  3.39472e-01 -1.72738e-01
       H -1.18740e-01  8.11620e-01 -6.02897e-01
       H -2.56687e-01 -1.17941e+00  5.45313e-01
       L  5.16800e+01 -1.84334e+00 -9.40006e-01
       L  4.23108e-01  2.33227e+01  6.82621e-02
6
# CELL(abcABC):  459.05226   459.05226   459.05226    90.00000    90.00000    90.00000  Step:          30  Bead:       0 x_centroid{angstrom}  cell{atomic_unit}
       C -3.24646e-01 -2.01846e-01  8.32974e-02
       O  8.24253e-01  3.42428e-01 -1.72814e-01
       H -1.22863e-01  8.16061e-01 -6.05341e-01
       H -2.51903e-01 -1.18534e+00  5.37165e-01
       L  5.11872e+01 -1.28235e+00 -6.66790e-01
       L  6.16302e-01  2.36968e+01 -9.15436e-02
6
# CELL(abcABC):  459.05226   459.05226   459.05226    90.00000    90.00000    90.00000  Step:          31  Bead:       0 x_centroid{angstrom}  cell{atomic_unit}
       C -3.24330e-01 -2.05658e-01  8.42148e-02
       O  8.24038e-01  3.45432e-01 -1.72964e-01
       H -1.26738e-01  8.19477e-01 -6.06922e-01
       H -2.48252e-01 -1.19153e+00  5.30117e-01
       L  5.07386e+01 -6.88796e-01 -3.51786e-01
       L  8.41319e-01  2.40496e+01 -2.53353e-01
6
# CELL(abcABC):  459.05226   459.05226   459.05226    90.00000    90.00000    90.00000  Step:          32  Bead:       0 x_centroid{angstrom}  cell{atomic_unit}
       C -3.24044e-01 -2.09752e-01  8.50220e-02
       O  8.23746e-01  3.48718e-01 -1.73034e-01
       H -1.29167e-01  8.20918e-01 -6.07929e-01
       H -2.44532e-01 -1.19679e+00  5.22552e-01
       L  5.03980e+01 -1.72196e-01 -4.70302e-02
       L  1.05726e+00  2.43660e+01 -4.32151e-01
6
# CELL(abcABC):  459.05226   459.05226   459.05226    90.00000    90.00000    90.00000  Step:          33  Bead:       0 x_centroid{angstrom}  cell{atomic_unit}
       C -3.23733e-01 -2.13878e-01  8.60023e-02
       O  8.23280e-01  3.52300e-01 -1.73274e-01
       H -1.29603e-01  8.19266e-01 -6.08863e-01
       H -2.40330e-01 -1.20327e+00  5.15509e-01
       L  5.00210e+01  3.32573e-01  2.71293e-01
       L  1.29735e+00  2.46358e+01 -5.58071e-01
6
# CELL(abcABC):  459.05226   459.05226   459.05226    90.00000    90.00000    90.00000  Step:          34  Bead:       0 x_centroid{angstrom}  cell{atomic_unit}
       C -3.23183e-01 -2.17854e-01  8.69422e-02
       O  8.22579e-01  3.55799e-01 -1.73564e-01
       H -1.27408e-01  8.17786e-01 -6.10131e-01
       H -2.37854e-01 -1.21036e+00  5.10114e-01
       L  4.95983e+01  8.14255e-01  5.50021e-01
       L  1.53588e+00  2.49437e+01 -7.23192e-01
6
# CELL(abcABC):  459.05226   459.05226   459.05226    90.00000    90.00000    90.00000  Step:          35  Bead:       0 x_centroid{angstrom}  cell{atomic_unit}
       C -3.22827e-01 -2.21334e-01  8.81583e-02
       O  8.21837e-01  3.59033e-01 -1.74214e-01
       H -1.23316e-01  8.15671e-01 -6.10359e-01
       H -2.34332e-01 -1.21848e+00  5.06099e-01
       L  4.92396e+01  1.24198e+00  8.07773e-01
       L  1.75973e+00  2.51838e+01 -8.64158e-01
6
# CELL(abcABC):  459.05226   459.05226   459.05226    90.00000    90.00000    90.00000  Step:          36  Bead:       0 x_centroid{angstrom}  cell{atomic_unit}
       C -3.22566e-01 -2.24864e-01  8.93947e-02
       O  8.21070e-01  3.62406e-01 -1.74844e-01
       H -1.16583e-01  8.11263e-01 -6.10882e-01
       H -2.31973e-01 -1.22591e+00  5.01829e-01
       L  4.89342e+01  1.70443e+00  1.11254e+00
       L  2.00741e+00  2.53854e+01 -1.03768e+00
6
# CELL(abcABC):  459.05226   459.05226   459.05226    90.00000    90.00000    90.00000  Step:          37  Bead:       0 x_centroid{angstrom}  cell{atomic_unit}
       C -3.22400e-01 -2.28362e-01  9.05605e-02
       O  8.20438e-01  3.65734e-01 -1.75534e-01
       H -1.10277e-01  8.06356e-01 -6.09567e-01
       H -2.30177e-01 -1.23249e+00  4.97519e-01
       L  4.85992e+01  2.17690e+00  1.35513e+00
       L  2.26176e+00  2.55375e+01 -1.19023e+00
6
# CELL(abcABC):  459.05226   459.05226   459.05226    90.00000    90.00000    90.00000  Step:          38  Bead:       0 x_centroid{angstrom}  cell{atomic_unit}
       C -3.22504e-01 -2.31975e-01  9.16192e-02
       O  8.19997e-01  3.69036e-01 -1.76258e-01
       H -1.03203e-01  8.02051e-01 -6.07094e-01
       H -2.28954e-01 -1.23784e+00  4.93867e-01
       L  4.82001e+01  2.58283e+00  1.60441e+00
       L  2.54527e+00  2.56682e+01 -1.34583e+00
6
# CELL(abcABC):  459.05226   459.05226   459.05226    90.00000    90.00000    90.00000  Step:          39  Bead:       0 x_centroid{angstrom}  cell{atomic_unit}
       C -3.22746e-01 -2.35666e-01  9.25845e-02
       O  8.19886e-01  3.72339e-01 -1.76944e-01
       H -9.83418e-02  7.99368e-01 -6.04999e-01
       H -2.29053e-01 -1.24388e+00  4.91127e-01
       L  4.77512e+01  3.03311e+00  1.81379e+00
       L  2.79077e+00  2.57388e+01 -1.47629e+00
6
# CELL(abcABC):  459.05226   459.05226   459.05226    90.00000    90.00000    90.00000  Step:          40  Bead:       0 x_centroid{angstrom}  cell{atomic_unit}
       C -3.23157e-01 -2.39415e-01  9.35207e-02
       O  8.20031e-01  3.75487e-01 -1.77599e-01
       H -9.58620e-02  8.00769e-01 -6.03577e-01
       H -2.28830e-01 -1.25082e+00  4.88872e-01
       L  4.72521e+01  3.45646e+00  2.03399e+00
       L  3.07664e+00  2.57635e+01 -1.55915e+00
6
# CELL(abcABC):  459.05226   459.05226   459.05226    90.00000    90.00000    90.00000  Step:          41  Bead:       0 x_centroid{angstrom}  cell{atomic_unit}
       C -3.23795e-01 -2.43415e-01  9.44267e-02
       O  8.20408e-01  3.78632e-01 -1.78171e-01
       H -9.53497e-02  8.04463e-01 -6.02524e-01
       H -2.27543e-01 -1.25699e+00  4.86046e-01
       L  4.66941e+01  3.86613e+00  2.21372e+00
       L  3.29792e+00  2.57289e+01 -1.66006e+00
6
# CELL(abcABC):  459.05226   459.05226   459.05226    90.00000    90.00000    90.00000  Step:          42  Bead:       0 x_centroid{angstrom}  cell{atomic_unit}
       C -3.24552e-01 -2.47716e-01  9.53673e-02
       O  8.20806e-01  3.81748e-01 -1.78743e-01
       H -9.42486e-02  8.12296e-01 -6.01672e-01
       H -2.25712e-01 -1.26324e+00  4.83060e-01
       L  4.61020e+01  4.26461e+00  2.35450e+00
       L  3.45889e+00  2.57082e+01 -1.77838e+00
6
# CELL(abcABC):  459.05226   459.05226   459.05226    90.00000    90.00000    90.00000  Step:          43  Bead:       0 x_centroid{angstrom}  cell{atomic_unit}
       C -3.25355e-01 -2.52209e-01  9.64383e-02
       O  8.21276e-01  3.84832e-01 -1.79436e-01
       H -9.27916e-02  8.23515e-01 -6.01061e-01
       H -2.24711e-01 -1.27003e+00  4.80705e-01
       L  4.54289e+01  4.62501e+00  2.44538e+00
       L  3.50399e+00  2.56476e+01 -1.90195e+00
6
# CELL(abcABC):  459.05226   459.05226   459.05226    90.00000    90.00000    90.00000  Step:          44  Bead:       0 x_centroid{angstrom}  cell{atomic_unit}
       C -3.26512e-01 -2.56884e-01  9.71074e-02
       O  8.21941e-01  3.87982e-01 -1.79881e-01
       H -8.99068e-02  8.36837e-01 -6.00417e-01
       H -2.24009e-01 -1.27780e+00  4.79173e-01
       L  4.47434e+01  4.92494e+00  2.48386e+00
       L  3.52050e+00  2.56184e+01 -1.99018e+00
6
# CELL(abcABC):  459.05226   459.05226   459.05226    90.00000    90.00000    90.00000  Step:          45  Bead:       0 x_centroid{angstrom}  cell{atomic_unit}
       C -3.27877e-01 -2.61597e-01  9.80007e-02
       O  8.22550e-01  3.90999e-01 -1.80525e-01
       H -8.42337e-02  8.51446e-01 -6.00215e-01
       H -2.22605e-01 -1.28429e+00  4.78546e-01
       L  4.39782e+01  5.17930e+00  2.55062e+00
       L  3.42850e+00  2.56467e+01 -2.04125e+00
6
# CELL(abcABC):  459.05226   459.05226   459.05226    90.00000    90.00000    90.00000  Step:          46  Bead:       0 x_centroid{angstrom}  cell{atomic_unit}
       C -3.29448e-01 -2.66384e-01  9.89958e-02
       O  8.23257e-01  3.93974e-01 -1.81437e-01
       H -7.62281e-02  8.65043e-01 -5.98309e-01
       H -2.22598e-01 -1.28817e+00  4.79248e-01
       L  4.31644e+01  5.40745e+00  2.56510e+00
       L  3.30026e+00  2.56058e+01 -2.03056e+00
6
# CELL(abcABC):  459.05226   459.05226   459.05226    90.00000    90.00000    90.00000  Step:          47  Bead:       0 x_centroid{angstrom}  cell{atomic_unit}
       C -3.31426e-01 -2.71359e-01  1.00042e-01
       O  8.23982e-01  3.97051e-01 -1.82432e-01
       H -6.46057e-02  8.78405e-01 -5.95966e-01
       H -2.21590e-01 -1.29114e+00  4.80242e-01
       L  4.23080e+01  5.59335e+00  2.52649e+00
       L  3.10437e+00  2.55134e+01 -2.01133e+00
6
# CELL(abcABC):  459.05226   459.05226   459.05226    90.00000    90.00000    90.00000  Step:          48  Bead:       0 x_centroid{angstrom}  cell{atomic_unit}
       C -3.33705e-01 -2.76606e-01  1.01425e-01
       O  8.24699e-01  4.00356e-01 -1.83764e-01
       H -4.90623e-02  8.89733e-01 -5.92068e-01
       H -2.20755e-01 -1.29245e+00  4.81036e-01
       L  4.13778e+01  5.75784e+00  2.43783e+00
       L  2.91447e+00  2.54327e+01 -1.96744e+00
6
# CELL(abcABC):  459.05226   459.05226   459.05226    90.00000    90.00000    90.00000  Step:          49  Bead:       0 x_centroid{angstrom}  cell{atomic_unit}
       C -3.36180e-01 -2.82284e-01  1.02894e-01
       O  8.25322e-01  4.04008e-01 -1.85091e-01
       H -3.07238e-02  8.98941e-01 -5.87771e-01
       H -2.18831e-01 -1.29193e+00  4.80327e-01
       L  4.03719e+01  5.82853e+00  2.28083e+00
       L  2.73548e+00  2.52869e+01 -1.89424e+00
6
# CELL(abcABC):  459.05226   459.05226   459.05226    90.00000    90.00000    90.00000  Step:          50  Bead:       0 x_centroid{angstrom}  cell{atomic_unit}
       C -3.39275e-01 -2.88193e-01  1.04493e-01
       O  8.26138e-01  4.07783e-01 -1.86634e-01
       H -8.86067e-03  9.06155e-01 -5.81896e-01
       H -2.16064e-01 -1.28852e+00  4.79953e-01
       L  3.93186e+01  5.81682e+00  2.08013e+00
       L  2.48975e+00  2.50667e+01 -1.79654e+00
6
# CELL(abcABC):  459.05226   459.05226   459.05226    90.00000    90.00000    90.00000  Step:          51  Bead:       0 x_centroid{angstrom}  cell{atomic_unit}
       C -3.42785e-01 -2.94051e-01  1.06030e-01
       O  8.27013e-01  4.11725e-01 -1.88181e-01
       H  1.60162e-02  9.10477e-01 -5.75751e-01
       H -2.12244e-01 -1.28541e+00  4.80163e-01
       L  3.81859e+01  5.71971e+00  1.82915e+00
       L  2.20255e+00  2.47740e+01 -1.74812e+00
6
# CELL(abcABC):  459.05226   459.05226   459.05226    90.00000    90.00000    90.00000  Step:          52  Bead:       0 x_centroid{angstrom}  cell{atomic_unit}
       C -3.46627e-01 -2.99992e-01  1.07329e-01
       O  8.27853e-01  4.15733e-01 -1.89676e-01
       H  4.37171e-02  9.15504e-01 -5.68984e-01
       H -2.06624e-01 -1.28301e+00  4.81778e-01
       L  3.69301e+01  5.54952e+00  1.51443e+00
       L  1.88680e+00  2.44682e+01 -1.67654e+00
6
# CELL(abcABC):  459.05226   459.05226   459.05226    90.00000    90.00000    90.00000  Step:          53  Bead:       0 x_centroid{angstrom}  cell{atomic_unit}
       C -3.50531e-01 -3.05720e-01  1.08312e-01
       O  8.28567e-01  4.19469e-01 -1.90962e-01
       H  7.15338e-02  9.23822e-01 -5.63602e-01
       H -1.98294e-01 -1.28208e+00  4.85206e-01
       L  3.55725e+01  5.33427e+00  1.20078e+00
       L  1.48650e+00  2.41458e+01 -1.56942e+00
6
# CELL(abcABC):  459.05226   459.05226   459.05226    90.00000    90.00000    90.00000  Step:          54  Bead:       0 x_centroid{angstrom}  cell{atomic_unit}
       C -3.54494e-01 -3.11054e-01  1.09310e-01
       O  8.29116e-01  4.22813e-01 -1.92308e-01
       H  1.01260e-01  9.37431e-01 -5.59023e-01
       H -1.88509e-01 -1.28492e+00  4.90230e-01
       L  3.40775e+01  5.08984e+00  8.57125e-01
       L  1.11991e+00  2.38752e+01 -1.45303e+00
6
# CELL(abcABC):  459.05226   459.05226   459.05226    90.00000    90.00000    90.00000  Step:          55  Bead:       0 x_centroid{angstrom}  cell{atomic_unit}
       C -3.58809e-01 -3.16353e-01  1.10078e-01
       O  8.29608e-01  4.26030e-01 -1.93474e-01
       H  1.32766e-01  9.55942e-01 -5.56063e-01
       H -1.75306e-01 -1.29101e+00  4.96673e-01
       L  3.24743e+01  4.76040e+00  5.85770e-01
       L  6.89847e-01  2.35612e+01 -1.28327e+00
6
# CELL(abcABC):  459.05226   459.05226   459.05226    90.00000    90.00000    90.00000  Step:          56  Bead:       0 x_centroid{angstrom}  cell{atomic_unit}
       C -3.63661e-01 -3.21843e-01  1.11193e-01
       O  8.30525e-01  4.29187e-01 -1.94776e-01
       H  1.62597e-01  9.79634e-01 -5.55749e-01
       H -1.60737e-01 -1.29899e+00  5.03750e-01
       L  3.07877e+01  4.37078e+00  3.11150e-01
       L  3.00046e-01  2.32450e+01 -1.01596e+00
6
# CELL(abcABC):  459.05226   459.05226   459.05226    90.00000    90.00000    90.00000  Step:          57  Bead:       0 x_centroid{angstrom}  cell{atomic_unit}
       C -3.68815e-01 -3.27322e-01  1.12245e-01
       O  8.31570e-01  4.32238e-01 -1.96026e-01
       H  1.91641e-01  1.00756e+00 -5.56484e-01
       H -1.43763e-01 -1.30965e+00  5.11753e-01
       L  2.90162e+01  3.99341e+00  7.54995e-02
       L -1.26656e-01  2.28626e+01 -7.12024e-01
6
# CELL(abcABC):  459.05226   459.05226   459.05226    90.00000    90.00000    90.00000  Step:          58  Bead:       0 x_centroid{angstrom}  cell{atomic_unit}
       C -3.73980e-01 -3.32832e-01  1.13588e-01
       O  8.32740e-01  4.35069e-01 -1.97391e-01
       H  2.18272e-01  1.03833e+00 -5.59349e-01
       H -1.26156e-01 -1.31922e+00  5.20260e-01
       L  2.71480e+01  3.55246e+00 -1.89095e-01
       L -5.54264e-01  2.24047e+01 -4.15865e-01
6
# CELL(abcABC):  459.05226   459.05226   459.05226    90.00000    90.00000    90.00000  Step:          59  Bead:       0 x_centroid{angstrom}  cell{atomic_unit}
       C -3.79417e-01 -3.38869e-01  1.15213e-01
       O  8.34130e-01  4.38207e-01 -1.98868e-01
       H  2.44525e-01  1.06970e+00 -5.63834e-01
       H -1.08410e-01 -1.32789e+00  5.28817e-01
       L  2.52275e+01  3.04758e+00 -4.87679e-01
       L -9.88595e-01  2.18707e+01 -8.48627e-02
6
# CELL(abcABC):  459.05226   459.05226   459.05226    90.00000    90.00000    90.00000  Step:          60  Bead:       0 x_centroid{angstrom}  cell{atomic_unit}
       C -3.85037e-01 -3.45598e-01  1.17266e-01
       O  8.35705e-01  4.41668e-01 -2.00417e-01
       H  2.71025e-01  1.09915e+00 -5.68099e-01
       H -9.16762e-02 -1.33149e+00  5.33159e-01
       L  2.33073e+01  2.50525e+00 -7.55389e-01
       L -1.40021e+00  2.12782e+01  2.63498e-01
6
# CELL(abcABC):  459.05226   459.05226   459.05226    90.00000    90.00000    90.00000  Step:          61  Bead:       0 x_centroid{angstrom}  cell{atomic_unit}
       C -3.90692e-01 -3.52645e-01  1.19505e-01
       O  8.37460e-01  4.45294e-01 -2.01746e-01
       H  2.96015e-01  1.12614e+00 -5.73455e-01
       H -7.58550e-02 -1.33136e+00  5.32908e-01
       L  2.13751e+01  1.91466e+00 -1.03820e+00
       L -1.81663e+00  2.06035e+01  5.82469e-01
6
# CELL(abcABC):  459.05226   459.05226   459.05226    90.00000    90.00000    90.00000  Step:          62  Bead:       0 x_centroid{angstrom}  cell{atomic_unit}
       C -3.96060e-01 -3.59859e-01  1.22248e-01
       O  8.39064e-01  4.49035e-01 -2.03145e-01
       H  3.22337e-01  1.14981e+00 -5.80586e-01
       H -6.24276e-02 -1.32772e+00  5.29582e-01
       L  1.94355e+01  1.26798e+00 -1.33390e+00
       L -2.18921e+00  1.98818e+01  8.51400e-01
6
# CELL(abcABC):  459.05226   459.05226   459.05226    90.00000    90.00000    90.00000  Step:          63  Bead:       0 x_centroid{angstrom}  cell{atomic_unit}
       C -4.00942e-01 -3.67329e-01  1.24994e-01
       O  8.40375e-01  4.52882e-01 -2.04470e-01
       H  3.50421e-01  1.17034e+00 -5.86654e-01
       H -5.18845e-02 -1.31949e+00  5.24011e-01
       L  1.74829e+01  5.93494e-01 -1.66412e+00
       L -2.52660e+00  1.90952e+01  1.07576e+00
6
# CELL(abcABC):  459.05226   459.05226   459.05226    90.00000    90.00000    90.00000  Step:          64  Bead:       0 x_centroid{angstrom}  cell{atomic_unit}
       C -4.05424e-01 -3.74589e-01  1.28077e-01
       O  8.41289e-01  4.56571e-01 -2.05910e-01
       H  3.80012e-01  1.18826e+00 -5.91833e-01
       H -4.13327e-02 -1.30859e+00  5.15394e-01
       L  1.54872e+01 -1.29533e-01 -2.02047e+00
       L -2.82303e+00  1.82041e+01  1.30117e+00
6
# CELL(abcABC):  459.05226   459.05226   459.05226    90.00000    90.00000    90.00000  Step:          65  Bead:       0 x_centroid{angstrom}  cell{atomic_unit}
       C -4.09423e-01 -3.81508e-01  1.30686e-01
       O  8.41673e-01  4.60247e-01 -2.06926e-01
       H  4.12143e-01  1.20224e+00 -5.97936e-01
       H -3.07071e-02 -1.29753e+00  5.06637e-01
       L  1.35212e+01 -8.73987e-01 -2.42653e+00
       L -3.06638e+00  1.72007e+01  1.49219e+00
6
# CELL(abcABC):  459.05226   459.05226   459.05226    90.00000    90.00000    90.00000  Step:          66  Bead:       0 x_centroid{angstrom}  cell{atomic_unit}
       C -4.12576e-01 -3.87709e-01  1.33012e-01