6
# CELL(abcABC):  459.05226   459.05226   459.05226    90.00000    90.00000    90.00000  Step:           0  Bead:       0 x_centroid{angstrom}  cell{atomic_unit}
       C -3.39887e-01 -1.13437e-01  8.06659e-02
       O  8.43483e-01  2.62672e-01 -1.81512e-01
       H -7.35799e-02  8.16467e-01 -6.61432e-01
       H -4.30016e-01 -9.65701e-01  7.62278e-01
       L  6.13458e+01  0.00000e+00  0.00000e+00
       L  0.00000e+00  8.59064e+00  0.00000e+00
6
# CELL(abcABC):  459.05226   459.05226   459.05226    90.00000    90.00000    90.00000  Step:           1  Bead:       0 x_centroid{angstrom}  cell{atomic_unit}
       C -3.42299e-01 -1.13886e-01  8.04048e-02
       O  8.45831e-01  2.63553e-01 -1.81489e-01
       H -7.05942e-02  8.05476e-01 -6.58116e-01
       H -4.42181e-01 -9.63578e-01  7.62049e-01
       L  6.19861e+01  1.08918e-01 -3.37076e-01
       L  5.49794e-01  8.87567e+00 -3.08651e-01
6
# CELL(abcABC):  459.05226   459.05226   459.05226    90.00000    90.00000    90.00000  Step:           2  Bead:       0 x_centroid{angstrom}  cell{atomic_unit}
       C -3.44572e-01 -1.14188e-01  8.02115e-02
       O  8.47940e-01  2.64263e-01 -1.81432e-01
       H -6.55954e-02  7.96602e-01 -6.57142e-01
       H -4.54201e-01 -9.62582e-01  7.62851e-01
       L  6.26263e+01  2.19637e-01 -7.28867e-01
       L  1.08425e+00  9.14862e+00 -6.08667e-01
6
# CELL(abcABC):  459.05226   459.05226   459.05226    90.00000    90.00000    90.00000  Step:           3  Bead:       0 x_centroid{angstrom}  cell{atomic_unit}
       C -3.46531e-01 -1.14595e-01  7.96746e-02
       O  8.49661e-01  2.64812e-01 -1.81125e-01
       H -5.94611e-02  7.91414e-01 -6.57435e-01
       H -4.64944e-01 -9.61513e-01  7.65055e-01
       L  6.32522e+01  3.69351e-01 -1.11675e+00
       L  1.62436e+00  9.47219e+00 -9.37634e-01
6
# CELL(abcABC):  459.05226   459.05226   459.05226    90.00000    90.00000    90.00000  Step:           4  Bead:       0 x_centroid{angstrom}  cell{atomic_unit}
       C -3.48221e-01 -1.15175e-01  7.88129e-02
       O  8.51092e-01  2.65248e-01 -1.80584e-01
       H -5.21852e-02  7.90300e-01 -6.59060e-01
       H -4.75403e-01 -9.60688e-01  7.68722e-01
       L  6.38186e+01  5.44836e-01 -1.40693e+00
       L  2.15612e+00  9.82935e+00 -1.30757e+00
6
# CELL(abcABC):  459.05226   459.05226   459.05226    90.00000    90.00000    90.00000  Step:           5  Bead:       0 x_centroid{angstrom}  cell{atomic_unit}
       C -3.49796e-01 -1.15770e-01  7.81204e-02
       O  8.52492e-01  2.65427e-01 -1.80099e-01
       H -4.61995e-02  7.92371e-01 -6.63412e-01
       H -4.85425e-01 -9.58833e-01  7.73968e-01
       L  6.43635e+01  7.52451e-01 -1.69060e+00
       L  2.69485e+00  1.01853e+01 -1.63735e+00
6
# CELL(abcABC):  459.05226   459.05226   459.05226    90.00000    90.00000    90.00000  Step:           6  Bead:       0 x_centroid{angstrom}  cell{atomic_unit}
       C -3.51211e-01 -1.16396e-01  7.71826e-02
       O  8.53797e-01  2.65414e-01 -1.79394e-01
       H -4.15859e-02  7.97372e-01 -6.69985e-01
       H -4.94455e-01 -9.56460e-01  7.80842e-01
       L  6.48324e+01  9.60883e-01 -1.97978e+00
       L  3.24495e+00  1.05305e+01 -1.92548e+00
6
# CELL(abcABC):  459.05226   459.05226   459.05226    90.00000    90.00000    90.00000  Step:           7  Bead:       0 x_centroid{angstrom}  cell{atomic_unit}
       C -3.52591e-01 -1.16750e-01  7.63119e-02
       O  8.55214e-01  2.65123e-01 -1.78542e-01
       H -3.93394e-02  8.02754e-01 -6.78693e-01
       H -5.03308e-01 -9.53265e-01  7.86686e-01
       L  6.53264e+01  1.11893e+00 -2.25694e+00
       L  3.78235e+00  1.08730e+01 -2.18839e+00
6
# CELL(abcABC):  459.05226   459.05226   459.05226    90.00000    90.00000    90.00000  Step:           8  Bead:       0 x_centroid{angstrom}  cell{atomic_unit}
       C -3.54129e-01 -1.17256e-01  7.56929e-02
       O  8.56936e-01  2.64837e-01 -1.77846e-01
       H -3.98529e-02  8.08596e-01 -6.88768e-01
       H -5.12294e-01 -9.48841e-01  7.93354e-01
       L  6.58024e+01  1.24949e+00 -2.51468e+00
       L  4.21092e+00  1.12973e+01 -2.39891e+00
6
# CELL(abcABC):  459.05226   459.05226   459.05226    90.00000    90.00000    90.00000  Step:           9  Bead:       0 x_centroid{angstrom}  cell{atomic_unit}
       C -3.55583e-01 -1.17613e-01  7.50974e-02
       O  8.58676e-01  2.64463e-01 -1.77081e-01
       H -4.09092e-02  8.12818e-01 -6.97973e-01
       H -5.22006e-01 -9.43210e-01  7.97786e-01
       L  6.62678e+01  1.37421e+00 -2.78110e+00
       L  4.61730e+00  1.17531e+01 -2.63137e+00
6
# CELL(abcABC):  459.05226   459.05226   459.05226    90.00000    90.00000    90.00000  Step:          10  Bead:       0 x_centroid{angstrom}  cell{atomic_unit}
       C -3.56848e-01 -1.17840e-01  7.45969e-02
       O  8.60163e-01  2.64194e-01 -1.76467e-01
       H -4.17178e-02  8.13510e-01 -7.04729e-01
       H -5.30115e-01 -9.37195e-01  8.01013e-01
       L  6.66847e+01  1.45623e+00 -3.01023e+00
       L  4.92814e+00  1.21808e+01 -2.88004e+00
6
# CELL(abcABC):  459.05226   459.05226   459.05226    90.00000    90.00000    90.00000  Step:          11  Bead:       0 x_centroid{angstrom}  cell{atomic_unit}
       C -3.58161e-01 -1.18061e-01  7.37476e-02
       O  8.61455e-01  2.63975e-01 -1.75512e-01
       H -4.08793e-02  8.10710e-01 -7.10699e-01
       H -5.36237e-01 -9.28587e-01  8.02176e-01
       L  6.71210e+01  1.57989e+00 -3.24346e+00
       L  5.23651e+00  1.26083e+01 -3.08734e+00
6
# CELL(abcABC):  459.05226   459.05226   459.05226    90.00000    90.00000    90.00000  Step:          12  Bead:       0 x_centroid{angstrom}  cell{atomic_unit}
       C -3.59242e-01 -1.17935e-01  7.30783e-02
       O  8.62436e-01  2.63788e-01 -1.74797e-01
       H -3.87230e-02  8.03070e-01 -7.13531e-01
       H -5.41440e-01 -9.19744e-01  8.01830e-01
       L  6.75561e+01  1.69988e+00 -3.44283e+00
       L  5.46648e+00  1.29950e+01 -3.22720e+00
6
# CELL(abcABC):  459.05226   459.05226   459.05226    90.00000    90.00000    90.00000  Step:          13  Bead:       0 x_centroid{angstrom}  cell{atomic_unit}
       C -3.60020e-01 -1.17849e-01  7.25449e-02
       O  8.62847e-01  2.63727e-01 -1.74231e-01
       H -3.31271e-02  7.94199e-01 -7.14356e-01
       H -5.44572e-01 -9.11213e-01  8.00142e-01
       L  6.79843e+01  1.85095e+00 -3.55755e+00
       L  5.56731e+00  1.33686e+01 -3.33083e+00
6
# CELL(abcABC):  459.05226   459.05226   459.05226    90.00000    90.00000    90.00000  Step:          14  Bead:       0 x_centroid{angstrom}  cell{atomic_unit}
       C -3.60536e-01 -1.17862e-01  7.17302e-02
       O  8.63009e-01  2.63865e-01 -1.73520e-01
       H -2.72922e-02  7.83671e-01 -7.13579e-01
       H -5.47065e-01 -9.02959e-01  7.97826e-01
       L  6.83943e+01  1.94900e+00 -3.63223e+00
       L  5.57682e+00  1.36875e+01 -3.33439e+00
6
# CELL(abcABC):  459.05226   459.05226   459.05226    90.00000    90.00000    90.00000  Step:          15  Bead:       0 x_centroid{angstrom}  cell{atomic_unit}
       C -3.60843e-01 -1.17664e-01  7.10659e-02
       O  8.62876e-01  2.64048e-01 -1.72807e-01
       H -2.01816e-02  7.71263e-01 -7.13424e-01
       H -5.48584e-01 -8.96008e-01  7.94254e-01
       L  6.87735e+01  2.03080e+00 -3.65183e+00
       L  5.53407e+00  1.39527e+01 -3.27003e+00
6
# CELL(abcABC):  459.05226   459.05226   459.05226    90.00000    90.00000    90.00000  Step:          16  Bead:       0 x_centroid{angstrom}  cell{atomic_unit}
       C -3.61075e-01 -1.17189e-01  6.99641e-02
       O  8.62756e-01  2.64198e-01 -1.71962e-01
       H -1.46561e-02  7.57965e-01 -7.12352e-01
       H -5.49580e-01 -8.90970e-01  7.92869e-01
       L  6.91044e+01  2.15176e+00 -3.71849e+00
       L  5.46472e+00  1.42403e+01 -3.15284e+00
6
# CELL(abcABC):  459.05226   459.05226   459.05226    90.00000    90.00000    90.00000  Step:          17  Bead:       0 x_centroid{angstrom}  cell{atomic_unit}
       C -3.61042e-01 -1.16586e-01  6.86185e-02
       O  8.62515e-01  2.64148e-01 -1.70974e-01
       H -1.12303e-02  7.47303e-01 -7.12227e-01
       H -5.49717e-01 -8.86960e-01  7.93046e-01
       L  6.94626e+01  2.32460e+00 -3.77122e+00
       L  5.37892e+00  1.45595e+01 -3.02464e+00
6
# CELL(abcABC):  459.05226   459.05226   459.05226    90.00000    90.00000    90.00000  Step:          18  Bead:       0 x_centroid{angstrom}  cell{atomic_unit}
       C -3.60868e-01 -1.15694e-01  6.72460e-02
       O  8.62417e-01  2.63736e-01 -1.69992e-01
       H -1.13555e-02  7.39954e-01 -7.12580e-01
       H -5.50204e-01 -8.84006e-01  7.94123e-01
       L  6.98164e+01  2.53188e+00 -3.82812e+00
       L  5.18989e+00  1.49133e+01 -2.89512e+00
6
# CELL(abcABC):  459.05226   459.05226   459.05226    90.00000    90.00000    90.00000  Step:          19  Bead:       0 x_centroid{angstrom}  cell{atomic_unit}
       C -3.60613e-01 -1.14464e-01  6.58467e-02
       O  8.62523e-01  2.62931e-01 -1.68751e-01
       H -1.59091e-02  7.35738e-01 -7.17437e-01
       H -5.50397e-01 -8.81966e-01  7.95928e-01
       L  7.01230e+01  2.70732e+00 -3.88241e+00
       L  4.92082e+00  1.52560e+01 -2.77835e+00
6
# CELL(abcABC):  459.05226   459.05226   459.05226    90.00000    90.00000    90.00000  Step:          20  Bead:       0 x_centroid{angstrom}  cell{atomic_unit}
       C -3.60234e-01 -1.13311e-01  6.39057e-02
       O  8.62802e-01  2.62097e-01 -1.67083e-01
       H -2.42877e-02  7.34602e-01 -7.23885e-01
       H -5.50948e-01 -8.81615e-01  7.98949e-01
       L  7.03781e+01  2.85062e+00 -3.82533e+00
       L  4.63320e+00  1.56602e+01 -2.67959e+00
6
# CELL(abcABC):  459.05226   459.05226   459.05226    90.00000    90.00000    90.00000  Step:          21  Bead:       0 x_centroid{angstrom}  cell{atomic_unit}
       C -3.59632e-01 -1.11797e-01  6.18008e-02
       O  8.62983e-01  2.60983e-01 -1.65232e-01
       H -3.43742e-02  7.34957e-01 -7.31493e-01
       H -5.50915e-01 -8.82629e-01  8.02122e-01
       L  7.07022e+01  2.96469e+00 -3.69936e+00
       L  4.34823e+00  1.61055e+01 -2.55974e+00
6
# CELL(abcABC):  459.05226   459.05226   459.05226    90.00000    90.00000    90.00000  Step:          22  Bead:       0 x_centroid{angstrom}  cell{atomic_unit}
       C -3.58879e-01 -1.10501e-01  5.92952e-02
       O  8.62815e-01  2.59924e-01 -1.62996e-01
       H -4.20019e-02  7.38360e-01 -7.39396e-01
       H -5.49585e-01 -8.84970e-01  8.04184e-01
       L  7.09882e+01  3.08921e+00 -3.45952e+00
       L  4.02702e+00  1.65355e+01 -2.42784e+00
6
# CELL(abcABC):  459.05226   459.05226   459.05226    90.00000    90.00000    90.00000  Step:          23  Bead:       0 x_centroid{angstrom}  cell{atomic_unit}
       C -3.57707e-01 -1.09140e-01  5.69429e-02
       O  8.62063e-01  2.58683e-01 -1.60987e-01
       H -4.67417e-02  7.42962e-01 -7.46389e-01
       H -5.46844e-01 -8.86406e-01  8.07133e-01
       L  7.13141e+01  3.20222e+00 -3.21959e+00
       L  3.66198e+00  1.69994e+01 -2.33473e+00
6
# CELL(abcABC):  459.05226   459.05226   459.05226    90.00000    90.00000    90.00000  Step:          24  Bead:       0 x_centroid{angstrom}  cell{atomic_unit}
       C -3.56421e-01 -1.07746e-01  5.46276e-02
       O  8.60766e-01  2.57542e-01 -1.58863e-01
       H -4.64440e-02  7.45791e-01 -7.53762e-01
       H -5.41892e-01 -8.88026e-01  8.08183e-01
       L  7.16948e+01  3.34099e+00 -2.90574e+00
       L  3.28521e+00  1.74021e+01 -2.26858e+00
6
# CELL(abcABC):  459.05226   459.05226   459.05226    90.00000    90.00000    90.00000  Step:          25  Bead:       0 x_centroid{angstrom}  cell{atomic_unit}
       C -3.54690e-01 -1.06059e-01  5.24228e-02
       O  8.59069e-01  2.56431e-01 -1.56801e-01
       H -4.53891e-02  7.45600e-01 -7.60794e-01
       H -5.36593e-01 -8.90602e-01  8.08512e-01
       L  7.20830e+01  3.47193e+00 -2.57741e+00
       L  2.81952e+00  1.77996e+01 -2.16982e+00
6
# CELL(abcABC):  459.05226   459.05226   459.05226    90.00000    90.00000    90.00000  Step:          26  Bead:       0 x_centroid{angstrom}  cell{atomic_unit}
       C -3.52655e-01 -1.04275e-01  4.98911e-02
       O  8.57181e-01  2.55454e-01 -1.54379e-01
       H -4.50842e-02  7.41700e-01 -7.65928e-01
       H -5.31161e-01 -8.92675e-01  8.05120e-01
       L  7.24636e+01  3.56443e+00 -2.20572e+00
       L  2.41182e+00  1.81270e+01 -2.07874e+00
6
# CELL(abcABC):  459.05226   459.05226   459.05226    90.00000    90.00000    90.00000  Step:          27  Bead:       0 x_centroid{angstrom}  cell{atomic_unit}
       C -3.50759e-01 -1.02574e-01  4.73399e-02
       O  8.55786e-01  2.54779e-01 -1.51976e-01
       H -4.92098e-02  7.33041e-01 -7.68800e-01
       H -5.27481e-01 -8.93771e-01  7.99981e-01
       L  7.28590e+01  3.64661e+00 -1.79902e+00
       L  2.02031e+00  1.84140e+01 -1.98561e+00
6
# CELL(abcABC):  459.05226   459.05226   459.05226    90.00000    90.00000    90.00000  Step:          28  Bead:       0 x_centroid{angstrom}  cell{atomic_unit}
       C -3.48775e-01 -1.00501e-01  4.48353e-02
       O  8.54525e-01  2.53956e-01 -1.49502e-01
       H -5.67344e-02  7.20827e-01 -7.71337e-01
       H -5.23570e-01 -8.93312e-01  7.92754e-01
       L  7.32382e+01  3.67037e+00 -1.36540e+00
       L  1.59102e+00  1.86134e+01 -1.81100e+00
6
# CELL(abcABC):  459.05226   459.05226   459.05226    90.00000    90.00000    90.00000  Step:          29  Bead:       0 x_centroid{angstrom}  cell{atomic_unit}
       C -3.46574e-01 -9.82280e-02  4.23978e-02
       O  8.53120e-01  2.53038e-01 -1.47028e-01
       H -6.49457e-02  7.06974e-01 -7.73065e-01
       H -5.19237e-01 -8.92063e-01  7.83911e-01
       L  7.35733e+01  3.65627e+00 -9.47319e-01
       L  1.19276e+00  1.87801e+01 -1.58938e+00
6
# CELL(abcABC):  459.05226   459.05226   459.05226    90.00000    90.00000    90.00000  Step:          30  Bead:       0 x_centroid{angstrom}  cell{atomic_unit}
       C -3.44010e-01 -9.62936e-02  4.00390e-02
       O  8.51392e-01  2.52215e-01 -1.44590e-01
       H -7.19033e-02  6.93575e-01 -7.73921e-01
       H -5.15389e-01 -8.88679e-01  7.73835e-01
       L  7.39116e+01  3.58816e+00 -5.24107e-01
       L  8.21736e-01  1.89146e+01 -1.38962e+00
6
# CELL(abcABC):  459.05226   459.05226   459.05226    90.00000    90.00000    90.00000  Step:          31  Bead:       0 x_centroid{angstrom}  cell{atomic_unit}
       C -3.41387e-01 -9.45749e-02  3.78298e-02
       O  8.49487e-01  2.51446e-01 -1.42282e-01
       H -7.62522e-02  6.83144e-01 -7.75067e-01
       H -5.12064e-01 -8.86554e-01  7.64356e-01
       L  7.43031e+01  3.50584e+00 -1.37810e-01
       L  4.51040e-01  1.90339e+01 -1.18331e+00
6
# CELL(abcABC):  459.05226   459.05226   459.05226    90.00000    90.00000    90.00000  Step:          32  Bead:       0 x_centroid{angstrom}  cell{atomic_unit}
       C -3.38291e-01 -9.24431e-02  3.59138e-02
       O  8.47024e-01  2.50321e-01 -1.40189e-01
       H -7.80785e-02  6.74076e-01 -7.78393e-01
       H -5.08107e-01 -8.85061e-01  7.56974e-01
       L  7.47634e+01  3.41877e+00  2.97989e-01
       L  1.27396e-01  1.91880e+01 -1.03968e+00
6
# CELL(abcABC):  459.05226   459.05226   459.05226    90.00000    90.00000    90.00000  Step:          33  Bead:       0 x_centroid{angstrom}  cell{atomic_unit}
       C -3.35106e-01 -9.04142e-02  3.40743e-02
       O  8.44201e-01  2.48998e-01 -1.38138e-01
       H -7.61730e-02  6.71222e-01 -7.83555e-01
       H -5.03252e-01 -8.85446e-01  7.51195e-01
       L  7.52665e+01  3.35351e+00  7.28179e-01
       L -2.01588e-01  1.93570e+01 -9.04718e-01
6
# CELL(abcABC):  459.05226   459.05226   459.05226    90.00000    90.00000    90.00000  Step:          34  Bead:       0 x_centroid{angstrom}  cell{atomic_unit}
       C -3.31805e-01 -8.82847e-02  3.22325e-02
       O  8.41384e-01  2.47438e-01 -1.36139e-01
       H -7.54477e-02  6.72768e-01 -7.90894e-01
       H -4.98730e-01 -8.87650e-01  7.48446e-01
       L  7.58110e+01  3.21657e+00  1.14188e+00
       L -5.23226e-01  1.95791e+01 -7.85330e-01
6
# CELL(abcABC):  459.05226   459.05226   459.05226    90.00000    90.00000    90.00000  Step:          35  Bead:       0 x_centroid{angstrom}  cell{atomic_unit}
       C -3.28722e-01 -8.62519e-02  3.02598e-02
       O  8.39153e-01  2.45748e-01 -1.33976e-01
       H -7.96197e-02  6.76344e-01 -8.01543e-01
       H -4.96003e-01 -8.88669e-01  7.47987e-01
       L  7.63457e+01  3.02637e+00  1.53819e+00
       L -8.15781e-01  1.98654e+01 -6.47590e-01
6
# CELL(abcABC):  459.05226   459.05226   459.05226    90.00000    90.00000    90.00000  Step:          36  Bead:       0 x_centroid{angstrom}  cell{atomic_unit}
       C -3.26146e-01 -8.42824e-02  2.82843e-02
       O  8.37830e-01  2.44032e-01 -1.31668e-01
       H -9.09807e-02  6.81496e-01 -8.14625e-01
       H -4.94457e-01 -8.90058e-01  7.47691e-01
       L  7.68861e+01  2.75421e+00  1.91226e+00
       L -1.13786e+00  2.01470e+01 -5.20583e-01
6
# CELL(abcABC):  459.05226   459.05226   459.05226    90.00000    90.00000    90.00000  Step:          37  Bead:       0 x_centroid{angstrom}  cell{atomic_unit}
       C -3.23326e-01 -8.26535e-02  2.58962e-02
       O  8.36697e-01  2.42537e-01 -1.29059e-01
       H -1.06739e-01  6.86925e-01 -8.28901e-01
       H -4.94447e-01 -8.91159e-01  7.48710e-01
       L  7.74698e+01  2.45861e+00  2.29843e+00
       L -1.47904e+00  2.04217e+01 -3.52220e-01
6
# CELL(abcABC):  459.05226   459.05226   459.05226    90.00000    90.00000    90.00000  Step:          38  Bead:       0 x_centroid{angstrom}  cell{atomic_unit}
       C -3.20529e-01 -8.07446e-02  2.36450e-02
       O  8.35763e-01  2.41050e-01 -1.26583e-01
       H -1.25382e-01  6.90054e-01 -8.43913e-01
       H -4.94510e-01 -8.93421e-01  7.50941e-01
       L  7.81227e+01  2.17503e+00  2.70557e+00
       L -1.77857e+00  2.06874e+01 -1.80118e-01
6
# CELL(abcABC):  459.05226   459.05226   459.05226    90.00000    90.00000    90.00000  Step:          39  Bead:       0 x_centroid{angstrom}  cell{atomic_unit}
       C -3.17741e-01 -7.86322e-02  2.15177e-02
       O  8.34694e-01  2.39603e-01 -1.24158e-01
       H -1.41862e-01  6.91905e-01 -8.59813e-01
       H -4.94512e-01 -8.97442e-01  7.53400e-01
       L  7.88627e+01  1.85595e+00  3.10496e+00
       L -2.10309e+00  2.09615e+01 -4.10650e-02
6
# CELL(abcABC):  459.05226   459.05226   459.05226    90.00000    90.00000    90.00000  Step:          40  Bead:       0 x_centroid{angstrom}  cell{atomic_unit}
       C -3.14674e-01 -7.67368e-02  1.93218e-02
       O  8.33077e-01  2.38425e-01 -1.21768e-01
       H -1.54440e-01  6.92610e-01 -8.75244e-01
       H -4.93063e-01 -9.02025e-01  7.56752e-01
       L  7.96935e+01  1.57889e+00  3.51748e+00
       L -2.46470e+00  2.12047e+01  1.11069e-01
6
# CELL(abcABC):  459.05226   459.05226   459.05226    90.00000    90.00000    90.00000  Step:          41  Bead:       0 x_centroid{angstrom}  cell{atomic_unit}
       C -3.11182e-01 -7.48246e-02  1.69527e-02
       O  8.31038e-01  2.37480e-01 -1.19341e-01
       H -1.64684e-01  6.91578e-01 -8.90208e-01
       H -4.92399e-01 -9.08747e-01  7.61120e-01
       L  8.06209e+01  1.32482e+00  3.95085e+00
       L -2.78861e+00  2.14219e+01  2.35855e-01
6
# CELL(abcABC):  459.05226   459.05226   459.05226    90.00000    90.00000    90.00000  Step:          42  Bead:       0 x_centroid{angstrom}  cell{atomic_unit}
       C -3.07222e-01 -7.27932e-02  1.45854e-02
       O  8.28527e-01  2.36530e-01 -1.16966e-01
       H -1.73464e-01  6.88990e-01 -9.03077e-01
       H -4.91359e-01 -9.15233e-01  7.64240e-01
       L  8.16786e+01  9.84618e-01  4.31083e+00
       L -3.07611e+00  2.16615e+01  3.51140e-01
6
# CELL(abcABC):  459.05226   459.05226   459.05226    90.00000    90.00000    90.00000  Step:          43  Bead:       0 x_centroid{angstrom}  cell{atomic_unit}
       C -3.02845e-01 -7.07774e-02  1.18856e-02
       O  8.25877e-01  2.35815e-01 -1.14547e-01
       H -1.85118e-01  6.84095e-01 -9.13318e-01
       H -4.90274e-01 -9.22921e-01  7.68054e-01
       L  8.28529e+01  6.25029e-01  4.61826e+00
       L -3.38896e+00  2.18664e+01  3.98619e-01
6
# CELL(abcABC):  459.05226   459.05226   459.05226    90.00000    90.00000    90.00000  Step:          44  Bead:       0 x_centroid{angstrom}  cell{atomic_unit}
       C -2.98006e-01 -6.86394e-02  9.07640e-03
       O  8.22986e-01  2.35184e-01 -1.11986e-01
       H -1.98788e-01  6.75809e-01 -9.22491e-01
       H -4.88903e-01 -9.30023e-01  7.69883e-01
       L  8.41444e+01  2.59644e-01  4.87887e+00
       L -3.67990e+00  2.20758e+01  4.55263e-01
6
# CELL(abcABC):  459.05226   459.05226   459.05226    90.00000    90.00000    90.00000  Step:          45  Bead:       0 x_centroid{angstrom}  cell{atomic_unit}
       C -2.92782e-01 -6.65726e-02  6.51566e-03
       O  8.20184e-01  2.34653e-01 -1.09523e-01
       H -2.17492e-01  6.65506e-01 -9.30323e-01
       H -4.88590e-01 -9.35802e-01  7.69008e-01
       L  8.54943e+01 -1.55817e-01  5.09039e+00
       L -3.90854e+00  2.22957e+01  4.77753e-01
6
# CELL(abcABC):  459.05226   459.05226   459.05226    90.00000    90.00000    90.00000  Step:          46  Bead:       0 x_centroid{angstrom}  cell{atomic_unit}
       C -2.87472e-01 -6.44195e-02  4.14998e-03
       O  8.17683e-01  2.34205e-01 -1.07216e-01
       H -2.40909e-01  6.52553e-01 -9.36735e-01
       H -4.89518e-01 -9.41312e-01  7.66869e-01
       L  8.70302e+01 -5.54646e-01  5.26037e+00
       L -4.03916e+00  2.25313e+01  5.16230e-01
6
# CELL(abcABC):  459.05226   459.05226   459.05226    90.00000    90.00000    90.00000  Step:          47  Bead:       0 x_centroid{angstrom}  cell{atomic_unit}
       C -2.82170e-01 -6.24094e-02  1.32581e-03
       O  8.15648e-01  2.33866e-01 -1.04402e-01
       H -2.69931e-01  6.38573e-01 -9.43291e-01
       H -4.92224e-01 -9.45840e-01  7.62363e-01
       L  8.86781e+01 -9.40274e-01  5.41010e+00
       L -4.09934e+00  2.27906e+01  4.57830e-01
6
# CELL(abcABC):  459.05226   459.05226   459.05226    90.00000    90.00000    90.00000  Step:          48  Bead:       0 x_centroid{angstrom}  cell{atomic_unit}
       C -2.76917e-01 -6.00318e-02 -1.64053e-03
       O  8.14052e-01  2.33336e-01 -1.01472e-01
       H -3.04367e-01  6.22216e-01 -9.48755e-01
       H -4.96027e-01 -9.49340e-01  7.56636e-01
       L  9.04614e+01 -1.33971e+00  5.57288e+00
       L -4.11745e+00  2.30775e+01  3.62198e-01
6
# CELL(abcABC):  459.05226   459.05226   459.05226    90.00000    90.00000    90.00000  Step:          49  Bead:       0 x_centroid{angstrom}  cell{atomic_unit}
       C -2.71353e-01 -5.74767e-02 -5.15765e-03
       O  8.12637e-01  2.32731e-01 -9.80857e-02
       H -3.44416e-01  6.04198e-01 -9.53740e-01
       H -5.00890e-01 -9.52137e-01  7.49814e-01
       L  9.23878e+01 -1.74436e+00  5.64319e+00
       L -4.06117e+00  2.34513e+01  2.16202e-01
6
# CELL(abcABC):  459.05226   459.05226   459.05226    90.00000    90.00000    90.00000  Step:          50  Bead:       0 x_centroid{angstrom}  cell{atomic_unit}
       C -2.65469e-01 -5.46576e-02 -8.95567e-03
       O  8.11440e-01  2.31985e-01 -9.44436e-02
       H -3.89930e-01  5.85556e-01 -9.57755e-01
       H -5.07642e-01 -9.55323e-01  7.41347e-01
       L  9.44403e+01 -2.09004e+00  5.69465e+00
       L -4.00786e+00  2.39372e+01  3.37490e-02
6
# CELL(abcABC):  459.05226   459.05226   459.05226    90.00000    90.00000    90.00000  Step:          51  Bead:       0 x_centroid{angstrom}  cell{atomic_unit}
       C -2.59297e-01 -5.15874e-02 -1.32200e-02
       O  8.10645e-01  2.31027e-01 -9.03979e-02
       H -4.42548e-01  5.65738e-01 -9.61997e-01
       H -5.17194e-01 -9.57045e-01  7.32290e-01
       L  9.66340e+01 -2.37435e+00  5.69635e+00
       L -3.90606e+00  2.44953e+01 -1.63773e-01
6
# CELL(abcABC):  459.05226   459.05226   459.05226    90.00000    90.00000    90.00000  Step:          52  Bead:       0 x_centroid{angstrom}  cell{atomic_unit}
       C -2.52874e-01 -4.81163e-02 -1.80889e-02
       O  8.10371e-01  2.29642e-01 -8.58701e-02
       H -5.03326e-01  5.44880e-01 -9.65128e-01
       H -5.29897e-01 -9.55780e-01  7.21669e-01
       L  9.88995e+01 -2.60217e+00  5.73397e+00
       L -3.77270e+00  2.51466e+01 -3.87422e-01
6
# CELL(abcABC):  459.05226   459.05226   459.05226    90.00000    90.00000    90.00000  Step:          53  Bead:       0 x_centroid{angstrom}  cell{atomic_unit}
       C -2.46646e-01 -4.42537e-02 -2.32342e-02
       O  8.10845e-01  2.27952e-01 -8.10714e-02
       H -5.71691e-01  5.22703e-01 -9.67444e-01
       H -5.44695e-01 -9.53089e-01  7.09268e-01
       L  1.01296e+02 -2.83186e+00  5.73126e+00
       L -3.57542e+00  2.58994e+01 -6.47951e-01
6
# CELL(abcABC):  459.05226   459.05226   459.05226    90.00000    90.00000    90.00000  Step:          54  Bead:       0 x_centroid{angstrom}  cell{atomic_unit}
       C -2.41048e-01 -4.02251e-02 -2.87579e-02
       O  8.12364e-01  2.26223e-01 -7.59664e-02
       H -6.48271e-01  4.97845e-01 -9.67677e-01
       H -5.60433e-01 -9.49135e-01  6.94452e-01
       L  1.03797e+02 -3.02072e+00  5.69738e+00
       L -3.31961e+00  2.67091e+01 -9.14419e-01
6
# CELL(abcABC):  459.05226   459.05226   459.05226    90.00000    90.00000    90.00000  Step:          55  Bead:       0 x_centroid{angstrom}  cell{atomic_unit}
       C -2.36150e-01 -3.62217e-02 -3.48490e-02
       O  8.15072e-01  2.24505e-01 -7.04848e-02
       H -7.32061e-01  4.70387e-01 -9.63951e-01
       H -5.79514e-01 -9.42523e-01  6.76515e-01
       L  1.06358e+02 -3.15330e+00  5.59392e+00
       L -3.07994e+00  2.75968e+01 -1.21090e+00
6
# CELL(abcABC):  459.05226   459.05226   459.05226    90.00000    90.00000    90.00000  Step:          56  Bead:       0 x_centroid{angstrom}  cell{atomic_unit}
       C -2.33031e-01 -3.28552e-02 -4.15574e-02
       O  8.19518e-01  2.23196e-01 -6.46639e-02
       H -8.21240e-01  4.40396e-01 -9.55523e-01
       H -5.99614e-01 -9.32306e-01  6.55830e-01
       L  1.08939e+02 -3.23722e+00  5.43240e+00
       L -2.84594e+00  2.84677e+01 -1.42144e+00
6
# CELL(abcABC):  459.05226   459.05226   459.05226    90.00000    90.00000    90.00000  Step:          57  Bead:       0 x_centroid{angstrom}  cell{atomic_unit}
       C -2.31994e-01 -2.98943e-02 -4.88874e-02
       O  8.25611e-01  2.22183e-01 -5.87049e-02
       H -9.12039e-01  4.07096e-01 -9.40628e-01
       H -6.19464e-01 -9.18649e-01  6.33897e-01
       L  1.11549e+02 -3.30196e+00  5.23774e+00
       L -2.55641e+00  2.93607e+01 -1.60799e+00
6
# CELL(abcABC):  459.05226   459.05226   459.05226    90.00000    90.00000    90.00000  Step:          58  Bead:       0 x_centroid{angstrom}  cell{atomic_unit}
       C -2.33380e-01 -2.78158e-02 -5.67383e-02
       O  8.33317e-01  2.21657e-01 -5.25475e-02
       H -1.00041e+00  3.71259e-01 -9.19684e-01
       H -6.38499e-01 -8.99669e-01  6.08947e-01
       L  1.14193e+02 -3.39402e+00  5.06477e+00
       L -2.23323e+00  3.02458e+01 -1.76670e+00
6
# CELL(abcABC):  459.05226   459.05226   459.05226    90.00000    90.00000    90.00000  Step:          59  Bead:       0 x_centroid{angstrom}  cell{atomic_unit}
       C -2.37159e-01 -2.62912e-02 -6.52898e-02
       O  8.42510e-01  2.21371e-01 -4.60017e-02
       H -1.08305e+00  3.33884e-01 -8.95629e-01
       H -6.58380e-01 -8.76346e-01  5.83081e-01
       L  1.16870e+02 -3.47227e+00  4.85259e+00
       L -1.92543e+00  3.11193e+01 -1.90763e+00
6
# CELL(abcABC):  459.05226   459.05226   459.05226    90.00000    90.00000    90.00000  Step:          60  Bead:       0 x_centroid{angstrom}  cell{atomic_unit}
       C -2.42350e-01 -2.53885e-02 -7.43905e-02
       O  8.52489e-01  2.21290e-01 -3.92247e-02
       H -1.16037e+00  2.96411e-01 -8.67423e-01
       H -6.79258e-01 -8.48784e-01  5.55930e-01
       L  1.19579e+02 -3.53362e+00  4.60809e+00
       L -1.59427e+00  3.19713e+01 -2.00068e+00
6
# CELL(abcABC):  459.05226   459.05226   459.05226    90.00000    90.00000    90.00000  Step:          61  Bead:       0 x_centroid{angstrom}  cell{atomic_unit}
       C -2.48377e-01 -2.47518e-02 -8.37918e-02
       O  8.62646e-01  2.21352e-01 -3.24494e-02
       H -1.23048e+00  2.59588e-01 -8.35919e-01
       H -7.00209e-01 -8.20982e-01  5.29170e-01
       L  1.22309e+02 -3.58055e+00  4.24052e+00
       L -1.30109e+00  3.28484e+01 -2.11858e+00
6
# CELL(abcABC):  459.05226   459.05226   459.05226    90.00000    90.00000    90.00000  Step:          62  Bead:       0 x_centroid{angstrom}  cell{atomic_unit}
       C -2.54290e-01 -2.42990e-02 -9.33843e-02
       O  8.72322e-01  2.21498e-01 -2.57985e-02
       H -1.29416e+00  2.25272e-01 -8.02460e-01
       H -7.21362e-01 -7.94836e-01  5.04743e-01
       L  1.25130e+02 -3.61897e+00  3.85570e+00
       L -9.90893e-01  3.37375e+01 -2.28487e+00
6
# CELL(abcABC):  459.05226   459.05226   459.05226    90.00000    90.00000    90.00000  Step:          63  Bead:       0 x_centroid{angstrom}  cell{atomic_unit}
       C -2.59123e-01 -2.37037e-02 -1.02715e-01
       O  8.80780e-01  2.21461e-01 -1.95216e-02
       H -1.35153e+00  1.95545e-01 -7.70803e-01
       H -7.42428e-01 -7.72148e-01  4.84894e-01
       L  1.28051e+02 -3.57550e+00  3.51251e+00
       L -6.40453e-01  3.46605e+01 -2.41421e+00
6
# CELL(abcABC):  459.05226   459.05226   459.05226    90.00000    90.00000    90.00000  Step:          64  Bead:       0 x_centroid{angstrom}  cell{atomic_unit}
       C -2.62433e-01 -2.28961e-02 -1.11792e-01
       O  8.87691e-01  2.21241e-01 -1.36079e-02
       H -1.40218e+00  1.69766e-01 -7.39905e-01
       H -7.63904e-01 -7.53046e-01  4.68551e-01
       L  1.31068e+02 -3.48004e+00  3.15402e+00
       L -2.68388e-01  3.55896e+01 -2.53181e+00
6
# CELL(abcABC):  459.05226   459.05226   459.05226    90.00000    90.00000    90.00000  Step:          65  Bead:       0 x_centroid{angstrom}  cell{atomic_unit}
       C -2.63830e-01 -2.19285e-02 -1.20753e-01
       O  8.92711e-01  2.20876e-01 -7.95368e-03
       H -1.44680e+00  1.48585e-01 -7.12501e-01
       H -7.84218e-01 -7.38212e-01  4.58416e-01
       L  1.34190e+02 -3.31914e+00  2.81381e+00
       L  1.31564e-01  3.65341e+01 -2.63477e+00
6
# CELL(abcABC):  459.05226   459.05226   459.05226    90.00000    90.00000    90.00000  Step:          66  Bead:       0 x_centroid{angstrom}  cell{atomic_unit}
       C -2.63733e-01 -2.09636e-02 -1.29220e-01