6
# CELL(abcABC):  459.05226   459.05226   459.05226    90.00000    90.00000    90.00000  Step:           0  Bead:       0 x_centroid{angstrom}  cell{atomic_unit}
       C -3.39887e-01 -1.13437e-01  8.06659e-02
       O  8.43483e-01  2.62672e-01 -1.81512e-01
       H -7.35799e-02  8.16467e-01 -6.61432e-01
       H -4.30016e-01 -9.65701e-01  7.62278e-01
       L  6.13458e+01  0.00000e+00  0.00000e+00
       L  0.00000e+00  8.59064e+00  0.00000e+00
6
# CELL(abcABC):  459.05226   459.05226   459.05226    90.00000    90.00000    90.00000  Step:           1  Bead:       0 x_centroid{angstrom}  cell{atomic_unit}
       C -3.38363e-01 -1.13702e-01  7.93006e-02
       O  8.42965e-01  2.63239e-01 -1.81304e-01
       H -8.51240e-02  8.05888e-01 -6.55166e-01
       H -4.28071e-01 -9.60859e-01  7.69202e-01
       L  6.10864e+01  2.52726e-02  1.12978e-01
       L -3.35081e-01  8.35165e+00 -5.48077e-01
6
# CELL(abcABC):  459.05226   459.05226   459.05226    90.00000    90.00000    90.00000  Step:           2  Bead:       0 x_centroid{angstrom}  cell{atomic_unit}
       C -3.36480e-01 -1.13918e-01  7.82839e-02
       O  8.41792e-01  2.63566e-01 -1.81363e-01
       H -9.19483e-02  7.97502e-01 -6.49406e-01
       H -4.24756e-01 -9.54981e-01  7.76780e-01
       L  6.08645e+01  4.59449e-02  1.97993e-01
       L -7.17566e-01  8.12247e+00 -1.14240e+00
6
# CELL(abcABC):  459.05226   459.05226   459.05226    90.00000    90.00000    90.00000  Step:           3  Bead:       0 x_centroid{angstrom}  cell{atomic_unit}
       C -3.34471e-01 -1.14382e-01  7.74106e-02
       O  8.40021e-01  2.63977e-01 -1.81570e-01
       H -9.24697e-02  7.92859e-01 -6.45462e-01
       H -4.19760e-01 -9.51206e-01  7.86779e-01
       L  6.06539e+01  2.25101e-02  3.06462e-01
       L -1.06030e+00  7.92433e+00 -1.72313e+00
6
# CELL(abcABC):  459.05226   459.05226   459.05226    90.00000    90.00000    90.00000  Step:           4  Bead:       0 x_centroid{angstrom}  cell{atomic_unit}
       C -3.32324e-01 -1.14842e-01  7.69943e-02
       O  8.37663e-01  2.64223e-01 -1.82047e-01
       H -8.70135e-02  7.92364e-01 -6.43031e-01
       H -4.13092e-01 -9.49011e-01  7.97153e-01
       L  6.04715e+01 -3.75182e-02  3.73234e-01
       L -1.36738e+00  7.74358e+00 -2.27915e+00
6
# CELL(abcABC):  459.05226   459.05226   459.05226    90.00000    90.00000    90.00000  Step:           5  Bead:       0 x_centroid{angstrom}  cell{atomic_unit}
       C -3.30000e-01 -1.15075e-01  7.67109e-02
       O  8.35296e-01  2.64208e-01 -1.82547e-01
       H -8.28362e-02  7.94072e-01 -6.41317e-01
       H -4.07124e-01 -9.47549e-01  8.07006e-01
       L  6.02715e+01 -1.43648e-01  4.09097e-01
       L -1.66016e+00  7.58170e+00 -2.79743e+00
6
# CELL(abcABC):  459.05226   459.05226   459.05226    90.00000    90.00000    90.00000  Step:           6  Bead:       0 x_centroid{angstrom}  cell{atomic_unit}
       C -3.28157e-01 -1.15564e-01  7.63075e-02
       O  8.33569e-01  2.64454e-01 -1.82853e-01
       H -8.29740e-02  7.94696e-01 -6.40768e-01
       H -4.01256e-01 -9.46110e-01  8.16311e-01
       L  6.00746e+01 -2.42040e-01  4.60651e-01
       L -1.98938e+00  7.42043e+00 -3.19479e+00
6
# CELL(abcABC):  459.05226   459.05226   459.05226    90.00000    90.00000    90.00000  Step:           7  Bead:       0 x_centroid{angstrom}  cell{atomic_unit}
       C -3.26698e-01 -1.16587e-01  7.58041e-02
       O  8.32604e-01  2.65010e-01 -1.82949e-01
       H -8.94862e-02  7.94333e-01 -6.41206e-01
       H -3.96550e-01 -9.42198e-01  8.24434e-01
       L  5.98742e+01 -3.98000e-01  5.58794e-01
       L -2.28012e+00  7.24576e+00 -3.57800e+00
6
# CELL(abcABC):  459.05226   459.05226   459.05226    90.00000    90.00000    90.00000  Step:           8  Bead:       0 x_centroid{angstrom}  cell{atomic_unit}
       C -3.25618e-01 -1.17688e-01  7.55667e-02
       O  8.32306e-01  2.65543e-01 -1.83161e-01
       H -1.00867e-01  7.93925e-01 -6.42077e-01
       H -3.93034e-01 -9.36932e-01  8.31631e-01
       L  5.96241e+01 -4.99368e-01  6.15530e-01
       L -2.51784e+00  6.98524e+00 -3.89445e+00
6
# CELL(abcABC):  459.05226   459.05226   459.05226    90.00000    90.00000    90.00000  Step:           9  Bead:       0 x_centroid{angstrom}  cell{atomic_unit}
       C -3.24822e-01 -1.19181e-01  7.53313e-02
       O  8.32343e-01  2.66170e-01 -1.83308e-01
       H -1.14323e-01  7.95859e-01 -6.43335e-01
       H -3.89425e-01 -9.30848e-01  8.38144e-01
       L  5.93818e+01 -5.94016e-01  7.15400e-01
       L -2.70172e+00  6.74080e+00 -4.17959e+00
6
# CELL(abcABC):  459.05226   459.05226   459.05226    90.00000    90.00000    90.00000  Step:          10  Bead:       0 x_centroid{angstrom}  cell{atomic_unit}
       C -3.23876e-01 -1.20821e-01  7.52694e-02
       O  8.32157e-01  2.66771e-01 -1.83414e-01
       H -1.25932e-01  7.99730e-01 -6.46180e-01
       H -3.85941e-01 -9.24554e-01  8.43459e-01
       L  5.92085e+01 -6.78932e-01  8.36709e-01
       L -2.86907e+00  6.50555e+00 -4.41876e+00
6
# CELL(abcABC):  459.05226   459.05226   459.05226    90.00000    90.00000    90.00000  Step:          11  Bead:       0 x_centroid{angstrom}  cell{atomic_unit}
       C -3.22854e-01 -1.22654e-01  7.54709e-02
       O  8.31405e-01  2.67314e-01 -1.83521e-01
       H -1.30576e-01  8.04235e-01 -6.49974e-01
       H -3.81376e-01 -9.15695e-01  8.46674e-01
       L  5.90780e+01 -7.23010e-01  8.84185e-01
       L -3.03999e+00  6.29575e+00 -4.66921e+00
6
# CELL(abcABC):  459.05226   459.05226   459.05226    90.00000    90.00000    90.00000  Step:          12  Bead:       0 x_centroid{angstrom}  cell{atomic_unit}
       C -3.21463e-01 -1.24606e-01  7.53738e-02
       O  8.30033e-01  2.67962e-01 -1.83457e-01
       H -1.28458e-01  8.07848e-01 -6.52799e-01
       H -3.78152e-01 -9.06201e-01  8.49708e-01
       L  5.89994e+01 -7.56260e-01  9.55852e-01
       L -3.20479e+00  6.08128e+00 -4.87230e+00
6
# CELL(abcABC):  459.05226   459.05226   459.05226    90.00000    90.00000    90.00000  Step:          13  Bead:       0 x_centroid{angstrom}  cell{atomic_unit}
       C -3.20021e-01 -1.26573e-01  7.54377e-02
       O  8.28355e-01  2.68768e-01 -1.83575e-01
       H -1.21804e-01  8.09938e-01 -6.55164e-01
       H -3.75290e-01 -8.97522e-01  8.53197e-01
       L  5.90021e+01 -7.65804e-01  1.03119e+00
       L -3.32753e+00  5.88002e+00 -4.99202e+00
6
# CELL(abcABC):  459.05226   459.05226   459.05226    90.00000    90.00000    90.00000  Step:          14  Bead:       0 x_centroid{angstrom}  cell{atomic_unit}
       C -3.18545e-01 -1.28426e-01  7.56482e-02
       O  8.26735e-01  2.69901e-01 -1.83679e-01
       H -1.14721e-01  8.07670e-01 -6.58362e-01
       H -3.74228e-01 -8.91024e-01  8.55565e-01
       L  5.90330e+01 -7.78920e-01  1.08134e+00
       L -3.40055e+00  5.65579e+00 -5.08263e+00
6
# CELL(abcABC):  459.05226   459.05226   459.05226    90.00000    90.00000    90.00000  Step:          15  Bead:       0 x_centroid{angstrom}  cell{atomic_unit}
       C -3.17541e-01 -1.30053e-01  7.59278e-02
       O  8.25607e-01  2.71119e-01 -1.83712e-01
       H -1.09076e-01  8.02444e-01 -6.60982e-01
       H -3.73891e-01 -8.85596e-01  8.55345e-01
       L  5.90190e+01 -8.03782e-01  1.18288e+00
       L -3.44415e+00  5.40111e+00 -5.11717e+00
6
# CELL(abcABC):  459.05226   459.05226   459.05226    90.00000    90.00000    90.00000  Step:          16  Bead:       0 x_centroid{angstrom}  cell{atomic_unit}
       C -3.17224e-01 -1.31421e-01  7.64717e-02
       O  8.25547e-01  2.72350e-01 -1.83849e-01
       H -1.09158e-01  7.94215e-01 -6.62529e-01
       H -3.76679e-01 -8.80438e-01  8.52507e-01
       L  5.90312e+01 -8.10281e-01  1.27749e+00
       L -3.38376e+00  5.09320e+00 -5.07299e+00
6
# CELL(abcABC):  459.05226   459.05226   459.05226    90.00000    90.00000    90.00000  Step:          17  Bead:       0 x_centroid{angstrom}  cell{atomic_unit}
       C -3.17134e-01 -1.32989e-01  7.68391e-02
       O  8.26140e-01  2.73837e-01 -1.83866e-01
       H -1.15084e-01  7.84177e-01 -6.64036e-01
       H -3.81312e-01 -8.75140e-01  8.49839e-01
       L  5.90407e+01 -8.01275e-01  1.30219e+00
       L -3.26385e+00  4.77465e+00 -4.97576e+00
6
# CELL(abcABC):  459.05226   459.05226   459.05226    90.00000    90.00000    90.00000  Step:          18  Bead:       0 x_centroid{angstrom}  cell{atomic_unit}
       C -3.17575e-01 -1.34589e-01  7.72557e-02
       O  8.27187e-01  2.75413e-01 -1.83953e-01
       H -1.21541e-01  7.74598e-01 -6.66687e-01
       H -3.86296e-01 -8.71352e-01  8.48796e-01
       L  5.90950e+01 -7.87226e-01  1.33489e+00
       L -3.17222e+00  4.43559e+00 -4.79616e+00
6
# CELL(abcABC):  459.05226   459.05226   459.05226    90.00000    90.00000    90.00000  Step:          19  Bead:       0 x_centroid{angstrom}  cell{atomic_unit}
       C -3.18343e-01 -1.36200e-01  7.73236e-02
       O  8.28139e-01  2.76995e-01 -1.83984e-01
       H -1.23954e-01  7.66910e-01 -6.70026e-01
       H -3.89959e-01 -8.69390e-01  8.51702e-01
       L  5.91612e+01 -7.83676e-01  1.39554e+00
       L -3.01106e+00  4.10111e+00 -4.64189e+00
6
# CELL(abcABC):  459.05226   459.05226   459.05226    90.00000    90.00000    90.00000  Step:          20  Bead:       0 x_centroid{angstrom}  cell{atomic_unit}
       C -3.18626e-01 -1.37978e-01  7.72239e-02
       O  8.28299e-01  2.78695e-01 -1.84122e-01
       H -1.21344e-01  7.62397e-01 -6.74011e-01
       H -3.91898e-01 -8.70542e-01  8.58886e-01
       L  5.92380e+01 -7.88486e-01  1.47573e+00
       L -2.82414e+00  3.86415e+00 -4.39791e+00
6
# CELL(abcABC):  459.05226   459.05226   459.05226    90.00000    90.00000    90.00000  Step:          21  Bead:       0 x_centroid{angstrom}  cell{atomic_unit}
       C -3.19023e-01 -1.39936e-01  7.66167e-02
       O  8.28136e-01  2.80507e-01 -1.84098e-01
       H -1.14194e-01  7.62281e-01 -6.78507e-01
       H -3.91893e-01 -8.75719e-01  8.70038e-01
       L  5.93599e+01 -7.86202e-01  1.55538e+00
       L -2.62287e+00  3.60268e+00 -4.10025e+00
6
# CELL(abcABC):  459.05226   459.05226   459.05226    90.00000    90.00000    90.00000  Step:          22  Bead:       0 x_centroid{angstrom}  cell{atomic_unit}
       C -3.19399e-01 -1.42144e-01  7.61957e-02
       O  8.27808e-01  2.82357e-01 -1.84220e-01
       H -1.05959e-01  7.64873e-01 -6.84420e-01
       H -3.90681e-01 -8.81242e-01  8.82667e-01
       L  5.95460e+01 -8.21829e-01  1.60363e+00
       L -2.39209e+00  3.38941e+00 -3.73382e+00
6
# CELL(abcABC):  459.05226   459.05226   459.05226    90.00000    90.00000    90.00000  Step:          23  Bead:       0 x_centroid{angstrom}  cell{atomic_unit}
       C -3.20014e-01 -1.44606e-01  7.59690e-02
       O  8.27890e-01  2.84251e-01 -1.84378e-01
       H -1.01637e-01  7.68840e-01 -6.90817e-01
       H -3.89239e-01 -8.85774e-01  8.94018e-01
       L  5.97209e+01 -9.02530e-01  1.68982e+00
       L -2.07267e+00  3.21698e+00 -3.35227e+00
6
# CELL(abcABC):  459.05226   459.05226   459.05226    90.00000    90.00000    90.00000  Step:          24  Bead:       0 x_centroid{angstrom}  cell{atomic_unit}
       C -3.21395e-01 -1.46839e-01  7.58152e-02
       O  8.29061e-01  2.85919e-01 -1.84414e-01
       H -1.03645e-01  7.72408e-01 -6.97095e-01
       H -3.89607e-01 -8.89033e-01  9.02403e-01
       L  5.98300e+01 -1.01950e+00  1.80425e+00
       L -1.70643e+00  2.98844e+00 -2.91366e+00
6
# CELL(abcABC):  459.05226   459.05226   459.05226    90.00000    90.00000    90.00000  Step:          25  Bead:       0 x_centroid{angstrom}  cell{atomic_unit}
       C -3.23174e-01 -1.49237e-01  7.57660e-02
       O  8.30875e-01  2.87786e-01 -1.84325e-01
       H -1.09266e-01  7.74094e-01 -7.04576e-01
       H -3.91834e-01 -8.91569e-01  9.08767e-01
       L  5.99211e+01 -1.13145e+00  1.90120e+00
       L -1.36207e+00  2.71320e+00 -2.46314e+00
6
# CELL(abcABC):  459.05226   459.05226   459.05226    90.00000    90.00000    90.00000  Step:          26  Bead:       0 x_centroid{angstrom}  cell{atomic_unit}
       C -3.24906e-01 -1.51734e-01  7.60050e-02
       O  8.32795e-01  2.89821e-01 -1.84369e-01
       H -1.16871e-01  7.73702e-01 -7.10094e-01
       H -3.94304e-01 -8.93505e-01  9.11855e-01
       L  6.00177e+01 -1.23720e+00  1.92088e+00
       L -1.00922e+00  2.41679e+00 -1.99249e+00
6
# CELL(abcABC):  459.05226   459.05226   459.05226    90.00000    90.00000    90.00000  Step:          27  Bead:       0 x_centroid{angstrom}  cell{atomic_unit}
       C -3.27067e-01 -1.54408e-01  7.63850e-02
       O  8.34787e-01  2.91958e-01 -1.84366e-01
       H -1.21766e-01  7.72176e-01 -7.15541e-01
       H -3.95545e-01 -8.93847e-01  9.12488e-01
       L  6.01638e+01 -1.32208e+00  1.85046e+00
       L -6.76443e-01  2.16596e+00 -1.48167e+00
6
# CELL(abcABC):  459.05226   459.05226   459.05226    90.00000    90.00000    90.00000  Step:          28  Bead:       0 x_centroid{angstrom}  cell{atomic_unit}
       C -3.29028e-01 -1.57123e-01  7.71149e-02
       O  8.36177e-01  2.94195e-01 -1.84644e-01
       H -1.20320e-01  7.68816e-01 -7.19957e-01
       H -3.95970e-01 -8.93494e-01  9.12435e-01
       L  6.03444e+01 -1.36399e+00  1.73815e+00
       L -3.31399e-01  1.91713e+00 -1.00861e+00
6
# CELL(abcABC):  459.05226   459.05226   459.05226    90.00000    90.00000    90.00000  Step:          29  Bead:       0 x_centroid{angstrom}  cell{atomic_unit}
       C -3.30518e-01 -1.59735e-01  7.79245e-02
       O  8.36562e-01  2.96429e-01 -1.84983e-01
       H -1.10743e-01  7.65048e-01 -7.23717e-01
       H -3.94191e-01 -8.93933e-01  9.11715e-01
       L  6.05543e+01 -1.36824e+00  1.61623e+00
       L -1.85503e-02  1.67642e+00 -5.17212e-01
6
# CELL(abcABC):  459.05226   459.05226   459.05226    90.00000    90.00000    90.00000  Step:          30  Bead:       0 x_centroid{angstrom}  cell{atomic_unit}
       C -3.31841e-01 -1.62300e-01  7.88789e-02
       O  8.36441e-01  2.98647e-01 -1.85461e-01
       H -9.70856e-02  7.62126e-01 -7.26765e-01
       H -3.90442e-01 -8.95540e-01  9.10782e-01
       L  6.07867e+01 -1.36900e+00  1.48487e+00
       L  2.75813e-01  1.46473e+00 -7.88958e-03
6
# CELL(abcABC):  459.05226   459.05226   459.05226    90.00000    90.00000    90.00000  Step:          31  Bead:       0 x_centroid{angstrom}  cell{atomic_unit}
       C -3.33174e-01 -1.64977e-01  7.96971e-02
       O  8.36340e-01  3.00864e-01 -1.85785e-01
       H -8.38746e-02  7.59201e-01 -7.29637e-01
       H -3.86448e-01 -8.95784e-01  9.08843e-01
       L  6.10342e+01 -1.33493e+00  1.36045e+00
       L  5.14362e-01  1.21648e+00  4.97850e-01
6
# CELL(abcABC):  459.05226   459.05226   459.05226    90.00000    90.00000    90.00000  Step:          32  Bead:       0 x_centroid{angstrom}  cell{atomic_unit}
       C -3.34694e-01 -1.67678e-01  8.06252e-02
       O  8.36770e-01  3.03103e-01 -1.86253e-01
       H -7.55613e-02  7.55934e-01 -7.32013e-01
       H -3.83679e-01 -8.95770e-01  9.07391e-01
       L  6.12110e+01 -1.31487e+00  1.21695e+00
       L  7.29883e-01  9.89733e-01  9.79987e-01
6
# CELL(abcABC):  459.05226   459.05226   459.05226    90.00000    90.00000    90.00000  Step:          33  Bead:       0 x_centroid{angstrom}  cell{atomic_unit}
       C -3.36572e-01 -1.70325e-01  8.15006e-02
       O  8.37868e-01  3.05171e-01 -1.86512e-01
       H -7.31499e-02  7.53118e-01 -7.35134e-01
       H -3.81374e-01 -8.94088e-01  9.04008e-01
       L  6.13373e+01 -1.31439e+00  1.10467e+00
       L  1.02698e+00  7.38169e-01  1.43301e+00
6
# CELL(abcABC):  459.05226   459.05226   459.05226    90.00000    90.00000    90.00000  Step:          34  Bead:       0 x_centroid{angstrom}  cell{atomic_unit}
       C -3.39054e-01 -1.72900e-01  8.23470e-02
       O  8.39681e-01  3.07146e-01 -1.86724e-01
       H -7.50028e-02  7.51214e-01 -7.38057e-01
       H -3.78908e-01 -8.92700e-01  9.00048e-01
       L  6.13909e+01 -1.33073e+00  1.02963e+00
       L  1.32999e+00  4.61358e-01  1.82252e+00
6
# CELL(abcABC):  459.05226   459.05226   459.05226    90.00000    90.00000    90.00000  Step:          35  Bead:       0 x_centroid{angstrom}  cell{atomic_unit}
       C -3.41649e-01 -1.75198e-01  8.30419e-02
       O  8.41762e-01  3.08903e-01 -1.86996e-01
       H -8.00527e-02  7.50726e-01 -7.41219e-01
       H -3.76122e-01 -8.92542e-01  8.99055e-01
       L  6.14102e+01 -1.38270e+00  1.01296e+00
       L  1.59453e+00  2.13286e-01  2.18372e+00
6
# CELL(abcABC):  459.05226   459.05226   459.05226    90.00000    90.00000    90.00000  Step:          36  Bead:       0 x_centroid{angstrom}  cell{atomic_unit}
       C -3.44025e-01 -1.77512e-01  8.32104e-02
       O  8.43639e-01  3.10570e-01 -1.87129e-01
       H -8.47594e-02  7.52301e-01 -7.43734e-01
       H -3.73033e-01 -8.92869e-01  9.01498e-01
       L  6.13908e+01 -1.38702e+00  9.98537e-01
       L  1.84947e+00 -4.17507e-02  2.50909e+00
6
# CELL(abcABC):  459.05226   459.05226   459.05226    90.00000    90.00000    90.00000  Step:          37  Bead:       0 x_centroid{angstrom}  cell{atomic_unit}
       C -3.46062e-01 -1.80034e-01  8.33280e-02
       O  8.44976e-01  3.12183e-01 -1.87386e-01
       H -8.53739e-02  7.57436e-01 -7.47312e-01
       H -3.69471e-01 -8.93435e-01  9.07595e-01
       L  6.13946e+01 -1.39656e+00  9.55558e-01
       L  2.03152e+00 -2.52169e-01  2.84359e+00
6
# CELL(abcABC):  459.05226   459.05226   459.05226    90.00000    90.00000    90.00000  Step:          38  Bead:       0 x_centroid{angstrom}  cell{atomic_unit}
       C -3.47657e-01 -1.82557e-01  8.31200e-02
       O  8.45647e-01  3.13426e-01 -1.87523e-01
       H -8.21846e-02  7.66570e-01 -7.51251e-01
       H -3.64388e-01 -8.92150e-01  9.16042e-01
       L  6.13884e+01 -1.37994e+00  9.60267e-01
       L  2.19638e+00 -4.23412e-01  3.12573e+00
6
# CELL(abcABC):  459.05226   459.05226   459.05226    90.00000    90.00000    90.00000  Step:          39  Bead:       0 x_centroid{angstrom}  cell{atomic_unit}
       C -3.48999e-01 -1.85118e-01  8.28579e-02
       O  8.45882e-01  3.14600e-01 -1.87760e-01
       H -7.62954e-02  7.75812e-01 -7.54868e-01
       H -3.58076e-01 -8.89404e-01  9.26370e-01
       L  6.13875e+01 -1.42259e+00  1.03705e+00
       L  2.28734e+00 -5.98504e-01  3.37221e+00
6
# CELL(abcABC):  459.05226   459.05226   459.05226    90.00000    90.00000    90.00000  Step:          40  Bead:       0 x_centroid{angstrom}  cell{atomic_unit}
       C -3.50701e-01 -1.87692e-01  8.25808e-02
       O  8.46325e-01  3.15810e-01 -1.88047e-01
       H -6.98342e-02  7.83692e-01 -7.56327e-01
       H -3.51282e-01 -8.85706e-01  9.35561e-01
       L  6.13567e+01 -1.42013e+00  1.07813e+00
       L  2.32493e+00 -7.84988e-01  3.55737e+00
6
# CELL(abcABC):  459.05226   459.05226   459.05226    90.00000    90.00000    90.00000  Step:          41  Bead:       0 x_centroid{angstrom}  cell{atomic_unit}
       C -3.52207e-01 -1.90234e-01  8.25264e-02
       O  8.46846e-01  3.17170e-01 -1.88470e-01
       H -6.48984e-02  7.87301e-01 -7.56870e-01
       H -3.46529e-01 -8.80545e-01  9.43366e-01
       L  6.12555e+01 -1.38647e+00  1.09851e+00
       L  2.39184e+00 -9.65261e-01  3.72702e+00
6
# CELL(abcABC):  459.05226   459.05226   459.05226    90.00000    90.00000    90.00000  Step:          42  Bead:       0 x_centroid{angstrom}  cell{atomic_unit}
       C -3.53836e-01 -1.92558e-01  8.28623e-02
       O  8.47634e-01  3.18681e-01 -1.89225e-01
       H -6.12753e-02  7.86369e-01 -7.54344e-01
       H -3.43171e-01 -8.75876e-01  9.48742e-01
       L  6.11028e+01 -1.29394e+00  1.04757e+00
       L  2.43203e+00 -1.08839e+00  3.90076e+00
6
# CELL(abcABC):  459.05226   459.05226   459.05226    90.00000    90.00000    90.00000  Step:          43  Bead:       0 x_centroid{angstrom}  cell{atomic_unit}
       C -3.55605e-01 -1.94926e-01  8.33664e-02
       O  8.48771e-01  3.20393e-01 -1.90073e-01
       H -6.02094e-02  7.81006e-01 -7.49144e-01
       H -3.41093e-01 -8.69417e-01  9.50979e-01
       L  6.08645e+01 -1.24180e+00  9.51635e-01
       L  2.45269e+00 -1.23943e+00  4.04677e+00
6
# CELL(abcABC):  459.05226   459.05226   459.05226    90.00000    90.00000    90.00000  Step:          44  Bead:       0 x_centroid{angstrom}  cell{atomic_unit}
       C -3.57506e-01 -1.97120e-01  8.38186e-02
       O  8.50130e-01  3.22128e-01 -1.90770e-01
       H -6.02807e-02  7.72969e-01 -7.43473e-01
       H -3.39813e-01 -8.62712e-01  9.50959e-01
       L  6.06187e+01 -1.20697e+00  8.85750e-01
       L  2.46616e+00 -1.39468e+00  4.14408e+00
6
# CELL(abcABC):  459.05226   459.05226   459.05226    90.00000    90.00000    90.00000  Step:          45  Bead:       0 x_centroid{angstrom}  cell{atomic_unit}
       C -3.59240e-01 -1.98804e-01  8.42766e-02
       O  8.51376e-01  3.23457e-01 -1.91465e-01
       H -6.04387e-02  7.64412e-01 -7.37617e-01
       H -3.38550e-01 -8.55122e-01  9.50729e-01
       L  6.02595e+01 -1.18453e+00  7.51973e-01
       L  2.39426e+00 -1.54710e+00  4.18863e+00
6
# CELL(abcABC):  459.05226   459.05226   459.05226    90.00000    90.00000    90.00000  Step:          46  Bead:       0 x_centroid{angstrom}  cell{atomic_unit}
       C -3.60902e-01 -2.00524e-01  8.46591e-02
       O  8.52464e-01  3.24741e-01 -1.92165e-01
       H -5.85001e-02  7.56964e-01 -7.31822e-01
       H -3.37667e-01 -8.47469e-01  9.51562e-01
       L  5.98448e+01 -1.18598e+00  6.15831e-01
       L  2.29722e+00 -1.70059e+00  4.18643e+00
6
# CELL(abcABC):  459.05226   459.05226   459.05226    90.00000    90.00000    90.00000  Step:          47  Bead:       0 x_centroid{angstrom}  cell{atomic_unit}
       C -3.62226e-01 -2.02668e-01  8.44965e-02
       O  8.53051e-01  3.26094e-01 -1.92662e-01
       H -5.33850e-02  7.52922e-01 -7.25448e-01
       H -3.36015e-01 -8.39306e-01  9.55146e-01
       L  5.93604e+01 -1.16148e+00  4.62166e-01
       L  2.22785e+00 -1.80356e+00  4.10473e+00
6
# CELL(abcABC):  459.05226   459.05226   459.05226    90.00000    90.00000    90.00000  Step:          48  Bead:       0 x_centroid{angstrom}  cell{atomic_unit}
       C -3.63045e-01 -2.04954e-01  8.39733e-02
       O  8.53009e-01  3.27371e-01 -1.93036e-01
       H -4.42002e-02  7.52480e-01 -7.19987e-01
       H -3.34424e-01 -8.31901e-01  9.62015e-01
       L  5.88226e+01 -1.11791e+00  2.81612e-01
       L  2.12571e+00 -1.84901e+00  3.99062e+00
6
# CELL(abcABC):  459.05226   459.05226   459.05226    90.00000    90.00000    90.00000  Step:          49  Bead:       0 x_centroid{angstrom}  cell{atomic_unit}
       C -3.63358e-01 -2.07168e-01  8.34766e-02
       O  8.52370e-01  3.28394e-01 -1.93348e-01
       H -3.16894e-02  7.55820e-01 -7.17294e-01
       H -3.32691e-01 -8.25139e-01  9.70374e-01
       L  5.82103e+01 -1.02659e+00  1.34987e-01
       L  2.04206e+00 -1.86648e+00  3.81205e+00
6
# CELL(abcABC):  459.05226   459.05226   459.05226    90.00000    90.00000    90.00000  Step:          50  Bead:       0 x_centroid{angstrom}  cell{atomic_unit}
       C -3.63098e-01 -2.09364e-01  8.28333e-02
       O  8.51309e-01  3.29249e-01 -1.93652e-01
       H -1.87822e-02  7.61841e-01 -7.14251e-01
       H -3.31455e-01 -8.18639e-01  9.80008e-01
       L  5.75463e+01 -8.99522e-01  6.82597e-03
       L  1.94873e+00 -1.83147e+00  3.59068e+00
6
# CELL(abcABC):  459.05226   459.05226   459.05226    90.00000    90.00000    90.00000  Step:          51  Bead:       0 x_centroid{angstrom}  cell{atomic_unit}
       C -3.62790e-01 -2.12061e-01  8.26798e-02
       O  8.50447e-01  3.30496e-01 -1.94310e-01
       H -7.45399e-03  7.68143e-01 -7.11505e-01
       H -3.32290e-01 -8.12691e-01  9.89750e-01
       L  5.68118e+01 -7.64765e-01 -1.00091e-01
       L  1.80396e+00 -1.80842e+00  3.29736e+00
6
# CELL(abcABC):  459.05226   459.05226   459.05226    90.00000    90.00000    90.00000  Step:          52  Bead:       0 x_centroid{angstrom}  cell{atomic_unit}
       C -3.62986e-01 -2.14678e-01  8.27238e-02
       O  8.50313e-01  3.31729e-01 -1.94852e-01
       H  1.65941e-05  7.73538e-01 -7.09675e-01
       H -3.34815e-01 -8.06566e-01  9.96236e-01
       L  5.60288e+01 -6.04927e-01 -1.97066e-01
       L  1.70253e+00 -1.81421e+00  2.97517e+00
6
# CELL(abcABC):  459.05226   459.05226   459.05226    90.00000    90.00000    90.00000  Step:          53  Bead:       0 x_centroid{angstrom}  cell{atomic_unit}
       C -3.63599e-01 -2.17543e-01  8.30151e-02
       O  8.50828e-01  3.33212e-01 -1.95406e-01
       H  4.26248e-03  7.78312e-01 -7.08661e-01
       H -3.39363e-01 -8.00800e-01  1.00074e+00
       L  5.51245e+01 -5.00677e-01 -2.46442e-01
       L  1.56939e+00 -1.80757e+00  2.64877e+00
6
# CELL(abcABC):  459.05226   459.05226   459.05226    90.00000    90.00000    90.00000  Step:          54  Bead:       0 x_centroid{angstrom}  cell{atomic_unit}
       C -3.64691e-01 -2.20519e-01  8.35282e-02
       O  8.51991e-01  3.34985e-01 -1.96005e-01
       H  5.31070e-03  7.80207e-01 -7.08110e-01
       H -3.45222e-01 -7.95415e-01  1.00379e+00
       L  5.41172e+01 -3.89450e-01 -2.85724e-01
       L  1.40533e+00 -1.83882e+00  2.32108e+00
6
# CELL(abcABC):  459.05226   459.05226   459.05226    90.00000    90.00000    90.00000  Step:          55  Bead:       0 x_centroid{angstrom}  cell{atomic_unit}
       C -3.66578e-01 -2.23840e-01  8.42410e-02
       O  8.53935e-01  3.37127e-01 -1.96495e-01
       H  6.28478e-03  7.80631e-01 -7.07792e-01
       H -3.53880e-01 -7.90307e-01  1.00295e+00
       L  5.29927e+01 -2.61566e-01 -2.85087e-01
       L  1.27194e+00 -1.89987e+00  1.94837e+00
6
# CELL(abcABC):  459.05226   459.05226   459.05226    90.00000    90.00000    90.00000  Step:          56  Bead:       0 x_centroid{angstrom}  cell{atomic_unit}
       C -3.68645e-01 -2.27380e-01  8.49851e-02
       O  8.55779e-01  3.39660e-01 -1.97022e-01
       H  1.09165e-02  7.78995e-01 -7.07922e-01
       H -3.62421e-01 -7.86726e-01  1.00282e+00
       L  5.18036e+01 -1.44674e-01 -2.74067e-01
       L  1.11267e+00 -1.95033e+00  1.50394e+00
6
# CELL(abcABC):  459.05226   459.05226   459.05226    90.00000    90.00000    90.00000  Step:          57  Bead:       0 x_centroid{angstrom}  cell{atomic_unit}
       C -3.70534e-01 -2.31246e-01  8.58885e-02
       O  8.57264e-01  3.42378e-01 -1.97569e-01
       H  1.99210e-02  7.77851e-01 -7.08604e-01
       H -3.71731e-01 -7.82626e-01  1.00161e+00
       L  5.05488e+01 -8.65692e-02 -2.21856e-01
       L  9.77325e-01 -2.06183e+00  1.08969e+00
6
# CELL(abcABC):  459.05226   459.05226   459.05226    90.00000    90.00000    90.00000  Step:          58  Bead:       0 x_centroid{angstrom}  cell{atomic_unit}
       C -3.72291e-01 -2.35041e-01  8.69853e-02
       O  8.58417e-01  3.45132e-01 -1.98283e-01
       H  3.39078e-02  7.77856e-01 -7.09456e-01
       H -3.82252e-01 -7.81146e-01  1.00092e+00
       L  4.92238e+01  2.29354e-02 -1.62750e-01
       L  7.79785e-01 -2.15531e+00  6.85417e-01
6
# CELL(abcABC):  459.05226   459.05226   459.05226    90.00000    90.00000    90.00000  Step:          59  Bead:       0 x_centroid{angstrom}  cell{atomic_unit}
       C -3.74141e-01 -2.38952e-01  8.81529e-02
       O  8.59149e-01  3.47910e-01 -1.99031e-01
       H  5.40260e-02  7.78170e-01 -7.11320e-01
       H -3.91087e-01 -7.78943e-01  1.00097e+00
       L  4.78596e+01  1.41825e-01 -8.98468e-02
       L  5.48081e-01 -2.25872e+00  2.02281e-01
6
# CELL(abcABC):  459.05226   459.05226   459.05226    90.00000    90.00000    90.00000  Step:          60  Bead:       0 x_centroid{angstrom}  cell{atomic_unit}
       C -3.75872e-01 -2.42531e-01  8.92095e-02
       O  8.59236e-01  3.50459e-01 -1.99903e-01
       H  8.12572e-02  7.80604e-01 -7.13405e-01
       H -3.98174e-01 -7.79154e-01  1.00456e+00
       L  4.64440e+01  1.54153e-01 -3.18244e-02
       L  3.38821e-01 -2.35231e+00 -3.20794e-01
6
# CELL(abcABC):  459.05226   459.05226   459.05226    90.00000    90.00000    90.00000  Step:          61  Bead:       0 x_centroid{angstrom}  cell{atomic_unit}
       C -3.77660e-01 -2.46125e-01  9.02623e-02
       O  8.58946e-01  3.52925e-01 -2.00854e-01
       H  1.14696e-01  7.85663e-01 -7.16557e-01
       H -4.04784e-01 -7.80434e-01  1.01051e+00
       L  4.49709e+01  1.55683e-01  2.51241e-02
       L  1.13931e-01 -2.52343e+00 -8.35930e-01
6
# CELL(abcABC):  459.05226   459.05226   459.05226    90.00000    90.00000    90.00000  Step:          62  Bead:       0 x_centroid{angstrom}  cell{atomic_unit}
       C -3.79556e-01 -2.49754e-01  9.14873e-02
       O  8.58500e-01  3.55279e-01 -2.01873e-01
       H  1.50868e-01  7.93464e-01 -7.23301e-01
       H -4.10321e-01 -7.82275e-01  1.01911e+00
       L  4.34898e+01  1.67312e-01  3.29757e-02
       L -1.57976e-01 -2.67838e+00 -1.36506e+00
6
# CELL(abcABC):  459.05226   459.05226   459.05226    90.00000    90.00000    90.00000  Step:          63  Bead:       0 x_centroid{angstrom}  cell{atomic_unit}
       C -3.81498e-01 -2.53932e-01  9.25945e-02
       O  8.57913e-01  3.57875e-01 -2.02697e-01
       H  1.88920e-01  8.04862e-01 -7.32186e-01
       H -4.14930e-01 -7.85030e-01  1.02817e+00
       L  4.19377e+01  1.33870e-01  1.62687e-02
       L -4.30970e-01 -2.77789e+00 -1.86491e+00
6
# CELL(abcABC):  459.05226   459.05226   459.05226    90.00000    90.00000    90.00000  Step:          64  Bead:       0 x_centroid{angstrom}  cell{atomic_unit}
       C -3.84166e-01 -2.58539e-01  9.37709e-02
       O  8.57798e-01  3.60641e-01 -2.03366e-01
       H  2.27450e-01  8.19382e-01 -7.44253e-01
       H -4.18776e-01 -7.88487e-01  1.03715e+00
       L  4.02899e+01  1.31959e-01 -5.41350e-02
       L -7.19723e-01 -2.91749e+00 -2.37434e+00
6
# CELL(abcABC):  459.05226   459.05226   459.05226    90.00000    90.00000    90.00000  Step:          65  Bead:       0 x_centroid{angstrom}  cell{atomic_unit}
       C -3.87374e-01 -2.63687e-01  9.53622e-02
       O  8.57981e-01  3.63825e-01 -2.04158e-01
       H  2.66096e-01  8.35090e-01 -7.57368e-01
       H -4.21023e-01 -7.93231e-01  1.04418e+00
       L  3.85671e+01  3.91235e-02 -1.26834e-01
       L -9.86924e-01 -3.10967e+00 -2.85906e+00
6
# CELL(abcABC):  459.05226   459.05226   459.05226    90.00000    90.00000    90.00000  Step:          66  Bead:       0 x_centroid{angstrom}  cell{atomic_unit}
       C -3.91408e-01 -2.69376e-01  9.72184e-02