6
# CELL(abcABC):  459.05226   459.05226   459.05226    90.00000    90.00000    90.00000  Step:           0  Bead:       0 x_centroid{angstrom}  cell{atomic_unit}
       C -3.39887e-01 -1.13437e-01  8.06659e-02
       O  8.43483e-01  2.62672e-01 -1.81512e-01
       H -7.35799e-02  8.16467e-01 -6.61432e-01
       H -4.30016e-01 -9.65701e-01  7.62278e-01
       L  6.13458e+01  0.00000e+00  0.00000e+00
       L  0.00000e+00  8.59064e+00  0.00000e+00
6
# CELL(abcABC):  459.05226   459.05226   459.05226    90.00000    90.00000    90.00000  Step:           1  Bead:       0 x_centroid{angstrom}  cell{atomic_unit}
       C -3.38304e-01 -1.13993e-01  8.02198e-02
       O  8.41492e-01  2.63213e-01 -1.81245e-01
       H -5.81490e-02  8.12836e-01 -6.66896e-01
       H -4.32572e-01 -9.64595e-01  7.68867e-01
       L  6.09531e+01  4.25019e-01 -1.78645e-01
       L  1.61528e-01  9.18757e+00  8.88272e-02
6
# CELL(abcABC):  459.05226   459.05226   459.05226    90.00000    90.00000    90.00000  Step:           2  Bead:       0 x_centroid{angstrom}  cell{atomic_unit}
       C -3.37438e-01 -1.14599e-01  7.99662e-02
       O  8.40429e-01  2.63739e-01 -1.81009e-01
       H -4.82620e-02  8.09141e-01 -6.71984e-01
       H -4.35769e-01 -9.62593e-01  7.73276e-01
       L  6.05072e+01  8.74474e-01 -3.90715e-01
       L  3.45655e-01  9.77453e+00  2.14895e-01
6
# CELL(abcABC):  459.05226   459.05226   459.05226    90.00000    90.00000    90.00000  Step:           3  Bead:       0 x_centroid{angstrom}  cell{atomic_unit}
       C -3.37598e-01 -1.15217e-01  7.98647e-02
       O  8.40808e-01  2.64283e-01 -1.80777e-01
       H -4.79492e-02  8.02846e-01 -6.76575e-01
       H -4.39989e-01 -9.58098e-01  7.75436e-01
       L  5.99643e+01  1.34325e+00 -5.65760e-01
       L  5.17636e-01  1.02769e+01  2.96016e-01
6
# CELL(abcABC):  459.05226   459.05226   459.05226    90.00000    90.00000    90.00000  Step:           4  Bead:       0 x_centroid{angstrom}  cell{atomic_unit}
       C -3.38244e-01 -1.15963e-01  7.97509e-02
       O  8.42245e-01  2.64875e-01 -1.80302e-01
       H -5.70288e-02  7.95500e-01 -6.81282e-01
       H -4.45800e-01 -9.51651e-01  7.73999e-01
       L  5.93746e+01  1.70982e+00 -7.05027e-01
       L  6.91275e-01  1.06472e+01  3.76615e-01
6
# CELL(abcABC):  459.05226   459.05226   459.05226    90.00000    90.00000    90.00000  Step:           5  Bead:       0 x_centroid{angstrom}  cell{atomic_unit}
       C -3.39097e-01 -1.16768e-01  7.95391e-02
       O  8.44020e-01  2.65433e-01 -1.79739e-01
       H -6.83023e-02  7.88311e-01 -6.85707e-01
       H -4.52305e-01 -9.44112e-01  7.72041e-01
       L  5.87501e+01  2.04532e+00 -8.58828e-01
       L  8.78784e-01  1.10100e+01  4.72864e-01
6
# CELL(abcABC):  459.05226   459.05226   459.05226    90.00000    90.00000    90.00000  Step:           6  Bead:       0 x_centroid{angstrom}  cell{atomic_unit}
       C -3.39612e-01 -1.17496e-01  7.94247e-02
       O  8.45148e-01  2.65871e-01 -1.79294e-01
       H -7.43793e-02  7.82933e-01 -6.90931e-01
       H -4.57759e-01 -9.37376e-01  7.71553e-01
       L  5.81704e+01  2.30625e+00 -9.64276e-01
       L  1.04666e+00  1.14179e+01  5.92576e-01
6
# CELL(abcABC):  459.05226   459.05226   459.05226    90.00000    90.00000    90.00000  Step:           7  Bead:       0 x_centroid{angstrom}  cell{atomic_unit}
       C -3.39525e-01 -1.18229e-01  7.92173e-02
       O  8.45143e-01  2.66351e-01 -1.78981e-01
       H -7.10622e-02  7.79531e-01 -6.96668e-01
       H -4.61861e-01 -9.33219e-01  7.74749e-01
       L  5.76784e+01  2.55199e+00 -1.00716e+00
       L  1.22546e+00  1.18017e+01  7.14817e-01
6
# CELL(abcABC):  459.05226   459.05226   459.05226    90.00000    90.00000    90.00000  Step:           8  Bead:       0 x_centroid{angstrom}  cell{atomic_unit}
       C -3.39048e-01 -1.18804e-01  7.88938e-02
       O  8.44144e-01  2.66912e-01 -1.78729e-01
       H -5.87717e-02  7.75886e-01 -7.03165e-01
       H -4.63855e-01 -9.31935e-01  7.81093e-01
       L  5.72613e+01  2.78047e+00 -1.05783e+00
       L  1.41507e+00  1.21557e+01  7.90704e-01
6
# CELL(abcABC):  459.05226   459.05226   459.05226    90.00000    90.00000    90.00000  Step:           9  Bead:       0 x_centroid{angstrom}  cell{atomic_unit}
       C -3.38426e-01 -1.19227e-01  7.87432e-02
       O  8.42698e-01  2.67503e-01 -1.78747e-01
       H -4.25153e-02  7.71248e-01 -7.09172e-01
       H -4.64450e-01 -9.31942e-01  7.89100e-01
       L  5.68925e+01  2.95520e+00 -1.04961e+00
       L  1.56029e+00  1.25404e+01  9.16822e-01
6
# CELL(abcABC):  459.05226   459.05226   459.05226    90.00000    90.00000    90.00000  Step:          10  Bead:       0 x_centroid{angstrom}  cell{atomic_unit}
       C -3.37993e-01 -1.19557e-01  7.86355e-02
       O  8.41438e-01  2.68206e-01 -1.78814e-01
       H -2.84152e-02  7.65290e-01 -7.15107e-01
       H -4.63593e-01 -9.33429e-01  7.97309e-01
       L  5.64692e+01  3.04712e+00 -1.01843e+00
       L  1.74741e+00  1.28536e+01  1.02413e+00
6
# CELL(abcABC):  459.05226   459.05226   459.05226    90.00000    90.00000    90.00000  Step:          11  Bead:       0 x_centroid{angstrom}  cell{atomic_unit}
       C -3.38317e-01 -1.20278e-01  7.88134e-02
       O  8.41415e-01  2.69360e-01 -1.78948e-01
       H -2.32617e-02  7.57141e-01 -7.21468e-01
       H -4.64370e-01 -9.35210e-01  8.03571e-01
       L  5.60133e+01  3.14411e+00 -9.15035e-01
       L  1.93464e+00  1.31342e+01  1.11625e+00
6
# CELL(abcABC):  459.05226   459.05226   459.05226    90.00000    90.00000    90.00000  Step:          12  Bead:       0 x_centroid{angstrom}  cell{atomic_unit}
       C -3.39320e-01 -1.21283e-01  7.90674e-02
       O  8.42537e-01  2.70807e-01 -1.78984e-01
       H -2.73567e-02  7.45119e-01 -7.28170e-01
       H -4.65973e-01 -9.34378e-01  8.07686e-01
       L  5.55113e+01  3.24052e+00 -7.82158e-01
       L  2.14326e+00  1.33859e+01  1.23272e+00
6
# CELL(abcABC):  459.05226   459.05226   459.05226    90.00000    90.00000    90.00000  Step:          13  Bead:       0 x_centroid{angstrom}  cell{atomic_unit}
       C -3.40889e-01 -1.22417e-01  7.95162e-02
       O  8.44469e-01  2.72306e-01 -1.78910e-01
       H -3.66470e-02  7.32618e-01 -7.36412e-01
       H -4.68486e-01 -9.32302e-01  8.09199e-01
       L  5.50037e+01  3.26517e+00 -5.65616e-01
       L  2.35783e+00  1.36362e+01  1.37725e+00
6
# CELL(abcABC):  459.05226   459.05226   459.05226    90.00000    90.00000    90.00000  Step:          14  Bead:       0 x_centroid{angstrom}  cell{atomic_unit}
       C -3.42750e-01 -1.23622e-01  8.01913e-02
       O  8.46512e-01  2.73734e-01 -1.78912e-01
       H -4.60880e-02  7.21207e-01 -7.45049e-01
       H -4.69149e-01 -9.29305e-01  8.09663e-01
       L  5.44873e+01  3.26346e+00 -3.91457e-01
       L  2.60417e+00  1.38396e+01  1.52327e+00
6
# CELL(abcABC):  459.05226   459.05226   459.05226    90.00000    90.00000    90.00000  Step:          15  Bead:       0 x_centroid{angstrom}  cell{atomic_unit}
       C -3.44400e-01 -1.25215e-01  8.09751e-02
       O  8.47789e-01  2.75388e-01 -1.79018e-01
       H -4.88466e-02  7.11330e-01 -7.54425e-01
       H -4.66924e-01 -9.26821e-01  8.11186e-01
       L  5.40714e+01  3.27620e+00 -2.00361e-01
       L  2.86981e+00  1.40354e+01  1.68660e+00
6
# CELL(abcABC):  459.05226   459.05226   459.05226    90.00000    90.00000    90.00000  Step:          16  Bead:       0 x_centroid{angstrom}  cell{atomic_unit}
       C -3.45738e-01 -1.26803e-01  8.14641e-02
       O  8.47968e-01  2.76878e-01 -1.79123e-01
       H -4.22258e-02  7.05136e-01 -7.63616e-01
       H -4.60404e-01 -9.25459e-01  8.15996e-01
       L  5.37691e+01  3.26128e+00  2.78401e-02
       L  3.10914e+00  1.42477e+01  1.84408e+00
6
# CELL(abcABC):  459.05226   459.05226   459.05226    90.00000    90.00000    90.00000  Step:          17  Bead:       0 x_centroid{angstrom}  cell{atomic_unit}
       C -3.46559e-01 -1.28400e-01  8.20483e-02
       O  8.47135e-01  2.78211e-01 -1.79314e-01
       H -2.73273e-02  7.03124e-01 -7.75099e-01
       H -4.52273e-01 -9.25674e-01  8.23389e-01
       L  5.34932e+01  3.18895e+00  2.39389e-01
       L  3.35260e+00  1.44864e+01  1.94719e+00
6
# CELL(abcABC):  459.05226   459.05226   459.05226    90.00000    90.00000    90.00000  Step:          18  Bead:       0 x_centroid{angstrom}  cell{atomic_unit}
       C -3.47580e-01 -1.29897e-01  8.24988e-02
       O  8.46277e-01  2.79397e-01 -1.79429e-01
       H -9.65001e-03  7.02175e-01 -7.86677e-01
       H -4.44196e-01 -9.25741e-01  8.31277e-01
       L  5.32383e+01  3.04409e+00  4.70558e-01
       L  3.64052e+00  1.47015e+01  1.98833e+00
6
# CELL(abcABC):  459.05226   459.05226   459.05226    90.00000    90.00000    90.00000  Step:          19  Bead:       0 x_centroid{angstrom}  cell{atomic_unit}
       C -3.49109e-01 -1.31635e-01  8.32645e-02
       O  8.46020e-01  2.80653e-01 -1.79633e-01
       H  4.53532e-03  7.01575e-01 -7.98408e-01
       H -4.36029e-01 -9.24405e-01  8.36975e-01
       L  5.28985e+01  2.87269e+00  7.02160e-01
       L  3.89546e+00  1.49295e+01  2.00852e+00
6
# CELL(abcABC):  459.05226   459.05226   459.05226    90.00000    90.00000    90.00000  Step:          20  Bead:       0 x_centroid{angstrom}  cell{atomic_unit}
       C -3.51203e-01 -1.33282e-01  8.38430e-02
       O  8.46880e-01  2.81857e-01 -1.79697e-01
       H  1.03064e-02  6.98366e-01 -8.07355e-01
       H -4.30424e-01 -9.20684e-01  8.39949e-01
       L  5.24794e+01  2.66534e+00  9.10165e-01
       L  4.17423e+00  1.51424e+01  1.98263e+00
6
# CELL(abcABC):  459.05226   459.05226   459.05226    90.00000    90.00000    90.00000  Step:          21  Bead:       0 x_centroid{angstrom}  cell{atomic_unit}
       C -3.53719e-01 -1.34955e-01  8.42301e-02
       O  8.48677e-01  2.83195e-01 -1.79608e-01
       H  7.45844e-03  6.91746e-01 -8.14789e-01
       H -4.25918e-01 -9.15350e-01  8.41267e-01
       L  5.19376e+01  2.43244e+00  1.14271e+00
       L  4.33613e+00  1.53248e+01  1.92674e+00
6
# CELL(abcABC):  459.05226   459.05226   459.05226    90.00000    90.00000    90.00000  Step:          22  Bead:       0 x_centroid{angstrom}  cell{atomic_unit}
       C -3.56773e-01 -1.36700e-01  8.48273e-02
       O  8.51341e-01  2.84815e-01 -1.79598e-01
       H -8.37339e-04  6.82220e-01 -8.21932e-01
       H -4.23286e-01 -9.10673e-01  8.41007e-01
       L  5.14388e+01  2.16114e+00  1.40321e+00
       L  4.40440e+00  1.55011e+01  1.88778e+00
6
# CELL(abcABC):  459.05226   459.05226   459.05226    90.00000    90.00000    90.00000  Step:          23  Bead:       0 x_centroid{angstrom}  cell{atomic_unit}
       C -3.59807e-01 -1.38491e-01  8.52201e-02
       O  8.53937e-01  2.86454e-01 -1.79687e-01
       H -7.72867e-03  6.72402e-01 -8.27109e-01
       H -4.21166e-01 -9.05468e-01  8.42875e-01
       L  5.09542e+01  1.88775e+00  1.58473e+00
       L  4.39271e+00  1.56696e+01  1.78699e+00
6
# CELL(abcABC):  459.05226   459.05226   459.05226    90.00000    90.00000    90.00000  Step:          24  Bead:       0 x_centroid{angstrom}  cell{atomic_unit}
       C -3.62833e-01 -1.40280e-01  8.53974e-02
       O  8.56068e-01  2.88058e-01 -1.79752e-01
       H -8.44454e-03  6.63349e-01 -8.31586e-01
       H -4.17945e-01 -9.00520e-01  8.46260e-01
       L  5.04720e+01  1.64249e+00  1.74657e+00
       L  4.36913e+00  1.58257e+01  1.65394e+00
6
# CELL(abcABC):  459.05226   459.05226   459.05226    90.00000    90.00000    90.00000  Step:          25  Bead:       0 x_centroid{angstrom}  cell{atomic_unit}
       C -3.65553e-01 -1.41824e-01  8.55474e-02
       O  8.57284e-01  2.89548e-01 -1.79882e-01
       H  6.31262e-05  6.55305e-01 -8.36221e-01
       H -4.13085e-01 -8.97672e-01  8.51194e-01
       L  5.00767e+01  1.38876e+00  1.90327e+00
       L  4.29821e+00  1.59860e+01  1.44739e+00
6
# CELL(abcABC):  459.05226   459.05226   459.05226    90.00000    90.00000    90.00000  Step:          26  Bead:       0 x_centroid{angstrom}  cell{atomic_unit}
       C -3.67416e-01 -1.43383e-01  8.60062e-02
       O  8.57223e-01  2.90979e-01 -1.80449e-01
       H  1.66832e-02  6.50624e-01 -8.40492e-01
       H -4.06252e-01 -8.97065e-01  8.59037e-01
       L  4.96700e+01  1.05724e+00  2.03779e+00
       L  4.16741e+00  1.61803e+01  1.24309e+00
6
# CELL(abcABC):  459.05226   459.05226   459.05226    90.00000    90.00000    90.00000  Step:          27  Bead:       0 x_centroid{angstrom}  cell{atomic_unit}
       C -3.68694e-01 -1.44860e-01  8.64389e-02
       O  8.56470e-01  2.92248e-01 -1.81117e-01
       H  3.69491e-02  6.48579e-01 -8.44577e-01
       H -3.99043e-01 -8.97493e-01  8.68598e-01
       L  4.92691e+01  6.96491e-01  2.19364e+00
       L  4.04362e+00  1.64311e+01  1.03122e+00
6
# CELL(abcABC):  459.05226   459.05226   459.05226    90.00000    90.00000    90.00000  Step:          28  Bead:       0 x_centroid{angstrom}  cell{atomic_unit}
       C -3.70208e-01 -1.46248e-01  8.65346e-02
       O  8.55992e-01  2.93474e-01 -1.81558e-01
       H  5.71039e-02  6.46735e-01 -8.48637e-01
       H -3.93241e-01 -8.98499e-01  8.78521e-01
       L  4.88197e+01  3.03392e-01  2.34535e+00
       L  3.86905e+00  1.66742e+01  8.70965e-01
6
# CELL(abcABC):  459.05226   459.05226   459.05226    90.00000    90.00000    90.00000  Step:          29  Bead:       0 x_centroid{angstrom}  cell{atomic_unit}
       C -3.72125e-01 -1.47767e-01  8.65758e-02
       O  8.56147e-01  2.94753e-01 -1.82029e-01
       H  7.34150e-02  6.45386e-01 -8.50811e-01
       H -3.88739e-01 -8.99269e-01  8.87686e-01
       L  4.82361e+01 -1.05429e-01  2.49604e+00
       L  3.67159e+00  1.69303e+01  7.18840e-01
6
# CELL(abcABC):  459.05226   459.05226   459.05226    90.00000    90.00000    90.00000  Step:          30  Bead:       0 x_centroid{angstrom}  cell{atomic_unit}
       C -3.74926e-01 -1.49603e-01  8.68560e-02
       O  8.57510e-01  2.96229e-01 -1.82658e-01
       H  8.35888e-02  6.41939e-01 -8.51439e-01
       H -3.86708e-01 -8.97327e-01  8.94964e-01
       L  4.75870e+01 -4.53765e-01  2.64766e+00
       L  3.48075e+00  1.71967e+01  5.63899e-01
6
# CELL(abcABC):  459.05226   459.05226   459.05226    90.00000    90.00000    90.00000  Step:          31  Bead:       0 x_centroid{angstrom}  cell{atomic_unit}
       C -3.78928e-01 -1.51914e-01  8.74675e-02
       O  8.60274e-01  2.98009e-01 -1.83362e-01
       H  8.83042e-02  6.36384e-01 -8.51831e-01
       H -3.87115e-01 -8.92449e-01  8.99264e-01
       L  4.68669e+01 -8.15629e-01  2.74185e+00
       L  3.27668e+00  1.74875e+01  4.15430e-01
6
# CELL(abcABC):  459.05226   459.05226   459.05226    90.00000    90.00000    90.00000  Step:          32  Bead:       0 x_centroid{angstrom}  cell{atomic_unit}
       C -3.83420e-01 -1.54379e-01  8.84805e-02
       O  8.63750e-01  2.99870e-01 -1.84309e-01
       H  8.98126e-02  6.30203e-01 -8.51300e-01
       H -3.89693e-01 -8.86367e-01  9.01753e-01
       L  4.60100e+01 -1.18145e+00  2.83336e+00
       L  3.07815e+00  1.77404e+01  2.27565e-01
6
# CELL(abcABC):  459.05226   459.05226   459.05226    90.00000    90.00000    90.00000  Step:          33  Bead:       0 x_centroid{angstrom}  cell{atomic_unit}
       C -3.88021e-01 -1.57092e-01  8.98857e-02
       O  8.67382e-01  3.01677e-01 -1.85493e-01
       H  9.16148e-02  6.25009e-01 -8.50139e-01
       H -3.93685e-01 -8.77495e-01  9.02709e-01
       L  4.50776e+01 -1.56749e+00  2.83630e+00
       L  2.83201e+00  1.80438e+01  9.31952e-02
6
# CELL(abcABC):  459.05226   459.05226   459.05226    90.00000    90.00000    90.00000  Step:          34  Bead:       0 x_centroid{angstrom}  cell{atomic_unit}
       C -3.92695e-01 -1.59732e-01  9.14545e-02
       O  8.70937e-01  3.03400e-01 -1.86945e-01
       H  9.58029e-02  6.21594e-01 -8.49368e-01
       H -3.97950e-01 -8.69921e-01  9.06376e-01
       L  4.41458e+01 -1.92544e+00  2.79213e+00
       L  2.56623e+00  1.83334e+01 -2.64281e-02
6
# CELL(abcABC):  459.05226   459.05226   459.05226    90.00000    90.00000    90.00000  Step:          35  Bead:       0 x_centroid{angstrom}  cell{atomic_unit}
       C -3.97162e-01 -1.62516e-01  9.31557e-02
       O  8.73862e-01  3.05020e-01 -1.88520e-01
       H  1.06826e-01  6.22100e-01 -8.49912e-01
       H -4.01510e-01 -8.62922e-01  9.11753e-01
       L  4.32145e+01 -2.29178e+00  2.70457e+00
       L  2.26181e+00  1.86306e+01 -1.25955e-01
6
# CELL(abcABC):  459.05226   459.05226   459.05226    90.00000    90.00000    90.00000  Step:          36  Bead:       0 x_centroid{angstrom}  cell{atomic_unit}
       C -4.00977e-01 -1.65407e-01  9.47840e-02
       O  8.75688e-01  3.06475e-01 -1.90161e-01
       H  1.26379e-01  6.26717e-01 -8.49996e-01
       H -4.03882e-01 -8.56138e-01  9.18608e-01
       L  4.22533e+01 -2.67115e+00  2.64568e+00
       L  1.93944e+00  1.88762e+01 -2.94447e-01
6
# CELL(abcABC):  459.05226   459.05226   459.05226    90.00000    90.00000    90.00000  Step:          37  Bead:       0 x_centroid{angstrom}  cell{atomic_unit}
       C -4.04448e-01 -1.68209e-01  9.64974e-02
       O  8.76732e-01  3.07703e-01 -1.91900e-01
       H  1.53922e-01  6.34605e-01 -8.50546e-01
       H -4.05901e-01 -8.50063e-01  9.26482e-01
       L  4.12626e+01 -3.01738e+00  2.60148e+00
       L  1.56288e+00  1.91309e+01 -4.83627e-01
6
# CELL(abcABC):  459.05226   459.05226   459.05226    90.00000    90.00000    90.00000  Step:          38  Bead:       0 x_centroid{angstrom}  cell{atomic_unit}
       C -4.08090e-01 -1.71085e-01  9.85284e-02
       O  8.77480e-01  3.08861e-01 -1.93968e-01
       H  1.86751e-01  6.44689e-01 -8.50576e-01
       H -4.06439e-01 -8.44201e-01  9.35274e-01
       L  4.02642e+01 -3.36505e+00  2.53957e+00
       L  1.14255e+00  1.93525e+01 -6.82037e-01
6
# CELL(abcABC):  459.05226   459.05226   459.05226    90.00000    90.00000    90.00000  Step:          39  Bead:       0 x_centroid{angstrom}  cell{atomic_unit}
       C -4.11942e-01 -1.74098e-01  1.00676e-01
       O  8.78118e-01  3.10242e-01 -1.95997e-01
       H  2.24096e-01  6.55391e-01 -8.51607e-01
       H -4.07220e-01 -8.40851e-01  9.43101e-01
       L  3.92349e+01 -3.68642e+00  2.40463e+00
       L  7.50618e-01  1.95661e+01 -8.72774e-01
6
# CELL(abcABC):  459.05226   459.05226   459.05226    90.00000    90.00000    90.00000  Step:          40  Bead:       0 x_centroid{angstrom}  cell{atomic_unit}
       C -4.16464e-01 -1.77622e-01  1.03041e-01
       O  8.79089e-01  3.11936e-01 -1.98114e-01
       H  2.64504e-01  6.67321e-01 -8.53161e-01
       H -4.08302e-01 -8.37675e-01  9.50255e-01
       L  3.80669e+01 -3.92128e+00  2.23379e+00
       L  3.28097e-01  1.97822e+01 -1.04744e+00
6
# CELL(abcABC):  459.05226   459.05226   459.05226    90.00000    90.00000    90.00000  Step:          41  Bead:       0 x_centroid{angstrom}  cell{atomic_unit}
       C -4.21906e-01 -1.81642e-01  1.05972e-01
       O  8.80706e-01  3.14036e-01 -2.00403e-01
       H  3.06383e-01  6.80176e-01 -8.57351e-01
       H -4.10044e-01 -8.35925e-01  9.56096e-01
       L  3.67352e+01 -4.12571e+00  2.00702e+00
       L -1.00022e-01  1.99487e+01 -1.24953e+00
6
# CELL(abcABC):  459.05226   459.05226   459.05226    90.00000    90.00000    90.00000  Step:          42  Bead:       0 x_centroid{angstrom}  cell{atomic_unit}
       C -4.28425e-01 -1.85810e-01  1.09009e-01
       O  8.83081e-01  3.16299e-01 -2.02575e-01
       H  3.48695e-01  6.92547e-01 -8.64620e-01
       H -4.11330e-01 -8.34521e-01  9.61885e-01
       L  3.53005e+01 -4.25063e+00  1.74620e+00
       L -5.69386e-01  2.00026e+01 -1.42312e+00
6
# CELL(abcABC):  459.05226   459.05226   459.05226    90.00000    90.00000    90.00000  Step:          43  Bead:       0 x_centroid{angstrom}  cell{atomic_unit}
       C -4.35677e-01 -1.89988e-01  1.12553e-01
       O  8.86029e-01  3.18582e-01 -2.04804e-01
       H  3.90216e-01  7.06423e-01 -8.76047e-01
       H -4.12127e-01 -8.34851e-01  9.66714e-01
       L  3.37558e+01 -4.33698e+00  1.48590e+00
       L -1.04863e+00  2.00766e+01 -1.61180e+00
6
# CELL(abcABC):  459.05226   459.05226   459.05226    90.00000    90.00000    90.00000  Step:          44  Bead:       0 x_centroid{angstrom}  cell{atomic_unit}
       C -4.43535e-01 -1.94601e-01  1.16396e-01
       O  8.89553e-01  3.21347e-01 -2.06994e-01
       H  4.29339e-01  7.20360e-01 -8.90054e-01
       H -4.12379e-01 -8.37635e-01  9.69877e-01
       L  3.21117e+01 -4.40088e+00  1.19742e+00
       L -1.54320e+00  2.00247e+01 -1.67386e+00
6
# CELL(abcABC):  459.05226   459.05226   459.05226    90.00000    90.00000    90.00000  Step:          45  Bead:       0 x_centroid{angstrom}  cell{atomic_unit}
       C -4.51931e-01 -1.99092e-01  1.20291e-01
       O  8.93601e-01  3.24119e-01 -2.08982e-01
       H  4.66630e-01  7.34194e-01 -9.07375e-01
       H -4.12687e-01 -8.41880e-01  9.72540e-01
       L  3.03680e+01 -4.44347e+00  9.21212e-01
       L -2.01566e+00  1.99037e+01 -1.74892e+00
6
# CELL(abcABC):  459.05226   459.05226   459.05226    90.00000    90.00000    90.00000  Step:          46  Bead:       0 x_centroid{angstrom}  cell{atomic_unit}
       C -4.60807e-01 -2.03347e-01  1.24231e-01
       O  8.97981e-01  3.26800e-01 -2.10677e-01
       H  5.03561e-01  7.48306e-01 -9.30167e-01
       H -4.12137e-01 -8.47724e-01  9.75462e-01
       L  2.85497e+01 -4.50152e+00  6.77759e-01
       L -2.47063e+00  1.97643e+01 -1.86548e+00
6
# CELL(abcABC):  459.05226   459.05226   459.05226    90.00000    90.00000    90.00000  Step:          47  Bead:       0 x_centroid{angstrom}  cell{atomic_unit}
       C -4.69907e-01 -2.07341e-01  1.28177e-01
       O  9.02439e-01  3.29285e-01 -2.12056e-01
       H  5.39752e-01  7.62500e-01 -9.56647e-01
       H -4.09415e-01 -8.53660e-01  9.77004e-01
       L  2.67102e+01 -4.51014e+00  4.40750e-01
       L -2.91186e+00  1.95709e+01 -1.97079e+00
6
# CELL(abcABC):  459.05226   459.05226   459.05226    90.00000    90.00000    90.00000  Step:          48  Bead:       0 x_centroid{angstrom}  cell{atomic_unit}
       C -4.78658e-01 -2.10820e-01  1.31831e-01
       O  9.06490e-01  3.31502e-01 -2.13021e-01
       H  5.77181e-01  7.75797e-01 -9.85366e-01
       H -4.05640e-01 -8.60580e-01  9.77714e-01
       L  2.48614e+01 -4.47653e+00  2.02435e-01
       L -3.31565e+00  1.93323e+01 -2.10956e+00
6
# CELL(abcABC):  459.05226   459.05226   459.05226    90.00000    90.00000    90.00000  Step:          49  Bead:       0 x_centroid{angstrom}  cell{atomic_unit}
       C -4.86793e-01 -2.13865e-01  1.35451e-01
       O  9.09837e-01  3.33577e-01 -2.13960e-01
       H  6.16610e-01  7.87087e-01 -1.01311e+00
       H -4.00052e-01 -8.68436e-01  9.77447e-01
       L  2.29962e+01 -4.38789e+00 -4.52568e-02
       L -3.67950e+00  1.90487e+01 -2.26943e+00
6
# CELL(abcABC):  459.05226   459.05226   459.05226    90.00000    90.00000    90.00000  Step:          50  Bead:       0 x_centroid{angstrom}  cell{atomic_unit}
       C -4.94396e-01 -2.16572e-01  1.38842e-01
       O  9.12555e-01  3.35638e-01 -2.14834e-01
       H  6.57568e-01  7.96294e-01 -1.03847e+00
       H -3.92333e-01 -8.77985e-01  9.76481e-01
       L  2.11224e+01 -4.29740e+00 -3.18631e-01
       L -4.02861e+00  1.87585e+01 -2.40543e+00
6
# CELL(abcABC):  459.05226   459.05226   459.05226    90.00000    90.00000    90.00000  Step:          51  Bead:       0 x_centroid{angstrom}  cell{atomic_unit}
       C -5.01061e-01 -2.18543e-01  1.41596e-01
       O  9.14279e-01  3.37277e-01 -2.15426e-01
       H  7.00131e-01  8.03465e-01 -1.05970e+00
       H -3.81690e-01 -8.87552e-01  9.74460e-01
       L  1.92994e+01 -4.21183e+00 -5.21007e-01
       L -4.33616e+00  1.84278e+01 -2.48036e+00
6
# CELL(abcABC):  459.05226   459.05226   459.05226    90.00000    90.00000    90.00000  Step:          52  Bead:       0 x_centroid{angstrom}  cell{atomic_unit}
       C -5.06859e-01 -2.19990e-01  1.44320e-01
       O  9.15108e-01  3.38801e-01 -2.16188e-01
       H  7.44329e-01  8.06714e-01 -1.07825e+00
       H -3.68836e-01 -8.97608e-01  9.72776e-01
       L  1.74853e+01 -4.10326e+00 -7.22604e-01
       L -4.59115e+00  1.80843e+01 -2.53004e+00
6
# CELL(abcABC):  459.05226   459.05226   459.05226    90.00000    90.00000    90.00000  Step:          53  Bead:       0 x_centroid{angstrom}  cell{atomic_unit}
       C -5.11795e-01 -2.20927e-01  1.46878e-01
       O  9.15019e-01  3.40137e-01 -2.17108e-01
       H  7.89564e-01  8.07565e-01 -1.09267e+00
       H -3.52733e-01 -9.08353e-01  9.71411e-01
       L  1.57002e+01 -4.02192e+00 -8.61694e-01
       L -4.83501e+00  1.77103e+01 -2.56246e+00
6
# CELL(abcABC):  459.05226   459.05226   459.05226    90.00000    90.00000    90.00000  Step:          54  Bead:       0 x_centroid{angstrom}  cell{atomic_unit}
       C -5.15902e-01 -2.21581e-01  1.48818e-01
       O  9.14270e-01  3.41411e-01 -2.18068e-01
       H  8.32638e-01  8.05402e-01 -1.10006e+00
       H -3.33883e-01 -9.18451e-01  9.71002e-01
       L  1.38537e+01 -3.95962e+00 -1.01931e+00
       L -4.99882e+00  1.73396e+01 -2.53398e+00
6
# CELL(abcABC):  459.05226   459.05226   459.05226    90.00000    90.00000    90.00000  Step:          55  Bead:       0 x_centroid{angstrom}  cell{atomic_unit}
       C -5.19297e-01 -2.21579e-01  1.50026e-01
       O  9.12924e-01  3.42214e-01 -2.18920e-01
       H  8.74136e-01  8.01497e-01 -1.10157e+00
       H -3.12484e-01 -9.27222e-01  9.71700e-01
       L  1.20154e+01 -3.81160e+00 -1.16431e+00
       L -5.11650e+00  1.70092e+01 -2.49963e+00
6
# CELL(abcABC):  459.05226   459.05226   459.05226    90.00000    90.00000    90.00000  Step:          56  Bead:       0 x_centroid{angstrom}  cell{atomic_unit}
       C -5.22085e-01 -2.21337e-01  1.50556e-01
       O  9.11243e-01  3.42753e-01 -2.19573e-01
       H  9.11693e-01  7.95693e-01 -1.09868e+00
       H -2.89083e-01 -9.32782e-01  9.72916e-01
       L  1.01463e+01 -3.64781e+00 -1.31017e+00
       L -5.19164e+00  1.67215e+01 -2.46360e+00
6
# CELL(abcABC):  459.05226   459.05226   459.05226    90.00000    90.00000    90.00000  Step:          57  Bead:       0 x_centroid{angstrom}  cell{atomic_unit}
       C -5.24354e-01 -2.20744e-01  1.50866e-01
       O  9.09497e-01  3.42884e-01 -2.20442e-01
       H  9.44944e-01  7.90102e-01 -1.09024e+00
       H -2.66521e-01 -9.36291e-01  9.74654e-01
       L  8.26033e+00 -3.44933e+00 -1.50188e+00
       L -5.27597e+00  1.64423e+01 -2.41784e+00
6
# CELL(abcABC):  459.05226   459.05226   459.05226    90.00000    90.00000    90.00000  Step:          58  Bead:       0 x_centroid{angstrom}  cell{atomic_unit}
       C -5.26442e-01 -2.19731e-01  1.50593e-01
       O  9.07809e-01  3.42517e-01 -2.20990e-01
       H  9.74106e-01  7.85038e-01 -1.07911e+00
       H -2.42948e-01 -9.37469e-01  9.75488e-01
       L  6.32145e+00 -3.21759e+00 -1.61538e+00
       L -5.28900e+00  1.62146e+01 -2.32974e+00
6
# CELL(abcABC):  459.05226   459.05226   459.05226    90.00000    90.00000    90.00000  Step:          59  Bead:       0 x_centroid{angstrom}  cell{atomic_unit}
       C -5.27964e-01 -2.18282e-01  1.50013e-01
       O  9.06076e-01  3.41788e-01 -2.21449e-01
       H  9.97295e-01  7.79096e-01 -1.06553e+00
       H -2.19418e-01 -9.37269e-01  9.76088e-01
       L  4.34397e+00 -2.93360e+00 -1.71393e+00
       L -5.25586e+00  1.60122e+01 -2.22388e+00
6
# CELL(abcABC):  459.05226   459.05226   459.05226    90.00000    90.00000    90.00000  Step:          60  Bead:       0 x_centroid{angstrom}  cell{atomic_unit}
       C -5.28506e-01 -2.16545e-01  1.49255e-01
       O  9.04031e-01  3.40694e-01 -2.21857e-01
       H  1.01500e+00  7.73959e-01 -1.05019e+00
       H -1.97148e-01 -9.35527e-01  9.76243e-01
       L  2.31167e+00 -2.65468e+00 -1.86257e+00
       L -5.17640e+00  1.58513e+01 -2.03695e+00
6
# CELL(abcABC):  459.05226   459.05226   459.05226    90.00000    90.00000    90.00000  Step:          61  Bead:       0 x_centroid{angstrom}  cell{atomic_unit}
       C -5.28407e-01 -2.14682e-01  1.48678e-01
       O  9.01895e-01  3.39114e-01 -2.22247e-01
       H  1.02680e+00  7.70685e-01 -1.03616e+00
       H -1.75166e-01 -9.29493e-01  9.75260e-01
       L  2.05551e-01 -2.33263e+00 -1.99314e+00
       L -5.02521e+00  1.57287e+01 -1.85016e+00
6
# CELL(abcABC):  459.05226   459.05226   459.05226    90.00000    90.00000    90.00000  Step:          62  Bead:       0 x_centroid{angstrom}  cell{atomic_unit}
       C -5.27866e-01 -2.12496e-01  1.47643e-01
       O  8.99816e-01  3.36951e-01 -2.22175e-01
       H  1.03318e+00  7.70082e-01 -1.02333e+00
       H -1.53932e-01 -9.20740e-01  9.73566e-01
       L -1.93921e+00 -2.04022e+00 -2.11988e+00
       L -4.80876e+00  1.56832e+01 -1.63779e+00
6
# CELL(abcABC):  459.05226   459.05226   459.05226    90.00000    90.00000    90.00000  Step:          63  Bead:       0 x_centroid{angstrom}  cell{atomic_unit}
       C -5.26622e-01 -2.10320e-01  1.46352e-01
       O  8.97753e-01  3.34433e-01 -2.21529e-01
       H  1.03340e+00  7.72877e-01 -1.01459e+00
       H -1.35222e-01 -9.09610e-01  9.69891e-01
       L -4.06368e+00 -1.78238e+00 -2.22938e+00
       L -4.52472e+00  1.56517e+01 -1.39056e+00
6
# CELL(abcABC):  459.05226   459.05226   459.05226    90.00000    90.00000    90.00000  Step:          64  Bead:       0 x_centroid{angstrom}  cell{atomic_unit}
       C -5.24793e-01 -2.08150e-01  1.45147e-01
       O  8.95712e-01  3.31688e-01 -2.20478e-01
       H  1.02854e+00  7.76662e-01 -1.01058e+00
       H -1.18804e-01 -8.95806e-01  9.63456e-01
       L -6.21004e+00 -1.47690e+00 -2.31371e+00
       L -4.14694e+00  1.55882e+01 -1.14158e+00
6
# CELL(abcABC):  459.05226   459.05226   459.05226    90.00000    90.00000    90.00000  Step:          65  Bead:       0 x_centroid{angstrom}  cell{atomic_unit}
       C -5.22391e-01 -2.06020e-01  1.43947e-01
       O  8.93799e-01  3.28861e-01 -2.19033e-01
       H  1.01847e+00  7.80665e-01 -1.01090e+00
       H -1.06060e-01 -8.80406e-01  9.55004e-01
       L -8.39970e+00 -1.19960e+00 -2.33997e+00
       L -3.67439e+00  1.54665e+01 -8.53311e-01
6
# CELL(abcABC):  459.05226   459.05226   459.05226    90.00000    90.00000    90.00000  Step:          66  Bead:       0 x_centroid{angstrom}  cell{atomic_unit}
       C -5.19565e-01 -2.03868e-01  1.42758e-01