6
# CELL(abcABC):  459.05226   459.05226   459.05226    90.00000    90.00000    90.00000  Step:           0  Bead:       0 x_centroid{angstrom}  cell{atomic_unit}
       C -3.39887e-01 -1.13437e-01  8.06659e-02
       O  8.43483e-01  2.62672e-01 -1.81512e-01
       H -7.35799e-02  8.16467e-01 -6.61432e-01
       H -4.30016e-01 -9.65701e-01  7.62278e-01
       L  6.13458e+01  0.00000e+00  0.00000e+00
       L  0.00000e+00  8.59064e+00  0.00000e+00
6
# CELL(abcABC):  459.05226   459.05226   459.05226    90.00000    90.00000    90.00000  Step:           1  Bead:       0 x_centroid{angstrom}  cell{atomic_unit}
       C -3.39998e-01 -1.11577e-01  7.84866e-02
       O  8.43509e-01  2.61672e-01 -1.79117e-01
       H -7.49046e-02  8.12027e-01 -6.61509e-01
       H -4.27707e-01 -9.67756e-01  7.50693e-01
       L  6.14883e+01 -2.53715e-02 -8.48895e-02
       L -2.75399e-01  8.97293e+00 -6.45379e-01
6
# CELL(abcABC):  459.05226   459.05226   459.05226    90.00000    90.00000    90.00000  Step:           2  Bead:       0 x_centroid{angstrom}  cell{atomic_unit}
       C -3.40079e-01 -1.09661e-01  7.66695e-02
       O  8.43478e-01  2.60604e-01 -1.77055e-01
       H -7.48631e-02  8.08947e-01 -6.62670e-01
       H -4.26218e-01 -9.70763e-01  7.41188e-01
       L  6.15959e+01 -6.41020e-02 -2.05328e-01
       L -5.16295e-01  9.39161e+00 -1.28720e+00
6
# CELL(abcABC):  459.05226   459.05226   459.05226    90.00000    90.00000    90.00000  Step:           3  Bead:       0 x_centroid{angstrom}  cell{atomic_unit}
       C -3.39849e-01 -1.08232e-01  7.47951e-02
       O  8.43186e-01  2.59765e-01 -1.74939e-01
       H -7.50247e-02  8.07376e-01 -6.64595e-01
       H -4.24084e-01 -9.73079e-01  7.32260e-01
       L  6.17259e+01 -1.40090e-01 -3.03486e-01
       L -7.82516e-01  9.81443e+00 -1.91044e+00
6
# CELL(abcABC):  459.05226   459.05226   459.05226    90.00000    90.00000    90.00000  Step:           4  Bead:       0 x_centroid{angstrom}  cell{atomic_unit}
       C -3.39453e-01 -1.06639e-01  7.28170e-02
       O  8.42768e-01  2.58759e-01 -1.72738e-01
       H -7.40693e-02  8.07285e-01 -6.66650e-01
       H -4.23040e-01 -9.76194e-01  7.23345e-01
       L  6.18359e+01 -2.08211e-01 -4.05382e-01
       L -1.05129e+00  1.02054e+01 -2.53442e+00
6
# CELL(abcABC):  459.05226   459.05226   459.05226    90.00000    90.00000    90.00000  Step:           5  Bead:       0 x_centroid{angstrom}  cell{atomic_unit}
       C -3.39243e-01 -1.05039e-01  7.10434e-02
       O  8.42565e-01  2.57711e-01 -1.70642e-01
       H -7.38645e-02  8.07186e-01 -6.69416e-01
       H -4.22462e-01 -9.78685e-01  7.14340e-01
       L  6.19443e+01 -2.35667e-01 -5.26631e-01
       L -1.27872e+00  1.05340e+01 -3.09690e+00
6
# CELL(abcABC):  459.05226   459.05226   459.05226    90.00000    90.00000    90.00000  Step:           6  Bead:       0 x_centroid{angstrom}  cell{atomic_unit}
       C -3.38826e-01 -1.03305e-01  6.93670e-02
       O  8.42321e-01  2.56698e-01 -1.68584e-01
       H -7.53695e-02  8.07600e-01 -6.72739e-01
       H -4.22013e-01 -9.83828e-01  7.05331e-01
       L  6.20814e+01 -2.82647e-01 -6.53347e-01
       L -1.47319e+00  1.08450e+01 -3.63085e+00
6
# CELL(abcABC):  459.05226   459.05226   459.05226    90.00000    90.00000    90.00000  Step:           7  Bead:       0 x_centroid{angstrom}  cell{atomic_unit}
       C -3.38199e-01 -1.01658e-01  6.73683e-02
       O  8.41932e-01  2.55697e-01 -1.66265e-01
       H -7.64316e-02  8.09263e-01 -6.77326e-01
       H -4.22234e-01 -9.89412e-01  6.97287e-01
       L  6.22633e+01 -2.48730e-01 -8.04105e-01
       L -1.67331e+00  1.11748e+01 -4.14386e+00
6
# CELL(abcABC):  459.05226   459.05226   459.05226    90.00000    90.00000    90.00000  Step:           8  Bead:       0 x_centroid{angstrom}  cell{atomic_unit}
       C -3.37977e-01 -1.00053e-01  6.50750e-02
       O  8.41882e-01  2.54807e-01 -1.63714e-01
       H -7.75458e-02  8.11106e-01 -6.82908e-01
       H -4.22966e-01 -9.96455e-01  6.90049e-01
       L  6.24488e+01 -2.22401e-01 -9.78825e-01
       L -1.88988e+00  1.15208e+01 -4.60555e+00
6
# CELL(abcABC):  459.05226   459.05226   459.05226    90.00000    90.00000    90.00000  Step:           9  Bead:       0 x_centroid{angstrom}  cell{atomic_unit}
       C -3.37701e-01 -9.82546e-02  6.28828e-02
       O  8.41714e-01  2.53836e-01 -1.61171e-01
       H -7.84636e-02  8.12639e-01 -6.89072e-01
       H -4.22669e-01 -1.00423e+00  6.82249e-01
       L  6.26292e+01 -2.09512e-01 -1.14817e+00
       L -2.06703e+00  1.19020e+01 -4.93144e+00
6
# CELL(abcABC):  459.05226   459.05226   459.05226    90.00000    90.00000    90.00000  Step:          10  Bead:       0 x_centroid{angstrom}  cell{atomic_unit}
       C -3.37706e-01 -9.66128e-02  6.06592e-02
       O  8.41784e-01  2.52999e-01 -1.58634e-01
       H -7.92356e-02  8.12572e-01 -6.95759e-01
       H -4.22956e-01 -1.01063e+00  6.75393e-01
       L  6.28090e+01 -2.14933e-01 -1.25966e+00
       L -2.23535e+00  1.22704e+01 -5.25097e+00
6
# CELL(abcABC):  459.05226   459.05226   459.05226    90.00000    90.00000    90.00000  Step:          11  Bead:       0 x_centroid{angstrom}  cell{atomic_unit}
       C -3.37687e-01 -9.53555e-02  5.84759e-02
       O  8.41945e-01  2.52553e-01 -1.56131e-01
       H -8.04673e-02  8.10527e-01 -7.01956e-01
       H -4.24469e-01 -1.01667e+00  6.68056e-01
       L  6.29567e+01 -2.51607e-01 -1.33011e+00
       L -2.43667e+00  1.26233e+01 -5.49860e+00
6
# CELL(abcABC):  459.05226   459.05226   459.05226    90.00000    90.00000    90.00000  Step:          12  Bead:       0 x_centroid{angstrom}  cell{atomic_unit}
       C -3.37155e-01 -9.40914e-02  5.63194e-02
       O  8.41862e-01  2.52182e-01 -1.53660e-01
       H -8.31120e-02  8.06777e-01 -7.07030e-01
       H -4.26838e-01 -1.02226e+00  6.59775e-01
       L  6.31407e+01 -2.64897e-01 -1.41031e+00
       L -2.65157e+00  1.29506e+01 -5.74724e+00
6
# CELL(abcABC):  459.05226   459.05226   459.05226    90.00000    90.00000    90.00000  Step:          13  Bead:       0 x_centroid{angstrom}  cell{atomic_unit}
       C -3.36433e-01 -9.29443e-02  5.42859e-02
       O  8.41501e-01  2.52009e-01 -1.51257e-01
       H -8.39298e-02  8.02212e-01 -7.11114e-01
       H -4.28886e-01 -1.02878e+00  6.50111e-01
       L  6.33692e+01 -2.74222e-01 -1.50438e+00
       L -2.89286e+00  1.32718e+01 -5.94616e+00
6
# CELL(abcABC):  459.05226   459.05226   459.05226    90.00000    90.00000    90.00000  Step:          14  Bead:       0 x_centroid{angstrom}  cell{atomic_unit}
       C -3.35563e-01 -9.19584e-02  5.24295e-02
       O  8.40870e-01  2.51906e-01 -1.48928e-01
       H -8.27279e-02  7.97174e-01 -7.16194e-01
       H -4.30443e-01 -1.03401e+00  6.40476e-01
       L  6.36269e+01 -3.17668e-01 -1.60752e+00
       L -3.14344e+00  1.35814e+01 -6.08463e+00
6
# CELL(abcABC):  459.05226   459.05226   459.05226    90.00000    90.00000    90.00000  Step:          15  Bead:       0 x_centroid{angstrom}  cell{atomic_unit}
       C -3.34497e-01 -9.07117e-02  5.06215e-02
       O  8.40206e-01  2.51635e-01 -1.46565e-01
       H -8.28858e-02  7.90970e-01 -7.21099e-01
       H -4.32466e-01 -1.03851e+00  6.29485e-01
       L  6.38995e+01 -3.92553e-01 -1.69869e+00
       L -3.39190e+00  1.39213e+01 -6.12651e+00
6
# CELL(abcABC):  459.05226   459.05226   459.05226    90.00000    90.00000    90.00000  Step:          16  Bead:       0 x_centroid{angstrom}  cell{atomic_unit}
       C -3.33535e-01 -8.97416e-02  4.89672e-02
       O  8.39639e-01  2.51507e-01 -1.44303e-01
       H -8.25027e-02  7.85007e-01 -7.27049e-01
       H -4.35353e-01 -1.04224e+00  6.19259e-01
       L  6.41810e+01 -4.13926e-01 -1.79721e+00
       L -3.59759e+00  1.42796e+01 -6.05331e+00
6
# CELL(abcABC):  459.05226   459.05226   459.05226    90.00000    90.00000    90.00000  Step:          17  Bead:       0 x_centroid{angstrom}  cell{atomic_unit}
       C -3.32318e-01 -8.88246e-02  4.70887e-02
       O  8.38789e-01  2.51393e-01 -1.41755e-01
       H -8.09445e-02  7.78613e-01 -7.33968e-01
       H -4.38000e-01 -1.04512e+00  6.08093e-01
       L  6.44495e+01 -4.32647e-01 -1.89375e+00
       L -3.72213e+00  1.45685e+01 -5.93115e+00
6
# CELL(abcABC):  459.05226   459.05226   459.05226    90.00000    90.00000    90.00000  Step:          18  Bead:       0 x_centroid{angstrom}  cell{atomic_unit}
       C -3.31267e-01 -8.81580e-02  4.52909e-02
       O  8.38183e-01  2.51407e-01 -1.39329e-01
       H -8.05086e-02  7.72381e-01 -7.41161e-01
       H -4.41431e-01 -1.04721e+00  5.98154e-01
       L  6.47007e+01 -4.15444e-01 -1.97079e+00
       L -3.78430e+00  1.48392e+01 -5.76411e+00
6
# CELL(abcABC):  459.05226   459.05226   459.05226    90.00000    90.00000    90.00000  Step:          19  Bead:       0 x_centroid{angstrom}  cell{atomic_unit}
       C -3.30457e-01 -8.74067e-02  4.35717e-02
       O  8.37900e-01  2.51331e-01 -1.36984e-01
       H -8.21606e-02  7.66296e-01 -7.48687e-01
       H -4.45122e-01 -1.04905e+00  5.88869e-01
       L  6.50431e+01 -3.62023e-01 -2.00589e+00
       L -3.80482e+00  1.50944e+01 -5.59938e+00
6
# CELL(abcABC):  459.05226   459.05226   459.05226    90.00000    90.00000    90.00000  Step:          20  Bead:       0 x_centroid{angstrom}  cell{atomic_unit}
       C -3.29805e-01 -8.68262e-02  4.20520e-02
       O  8.37878e-01  2.51395e-01 -1.34844e-01
       H -8.53084e-02  7.61368e-01 -7.55979e-01
       H -4.49608e-01 -1.05223e+00  5.80210e-01
       L  6.54030e+01 -2.97036e-01 -1.99642e+00
       L -3.76167e+00  1.53823e+01 -5.43779e+00
6
# CELL(abcABC):  459.05226   459.05226   459.05226    90.00000    90.00000    90.00000  Step:          21  Bead:       0 x_centroid{angstrom}  cell{atomic_unit}
       C -3.28949e-01 -8.63028e-02  4.05514e-02
       O  8.37625e-01  2.51378e-01 -1.32834e-01
       H -8.78365e-02  7.58994e-01 -7.62626e-01
       H -4.53539e-01 -1.05603e+00  5.72739e-01
       L  6.58151e+01 -2.19671e-01 -2.04462e+00
       L -3.67403e+00  1.56824e+01 -5.21489e+00
6
# CELL(abcABC):  459.05226   459.05226   459.05226    90.00000    90.00000    90.00000  Step:          22  Bead:       0 x_centroid{angstrom}  cell{atomic_unit}
       C -3.28037e-01 -8.57358e-02  3.87512e-02
       O  8.37332e-01  2.51198e-01 -1.30771e-01
       H -8.92900e-02  7.58383e-01 -7.68804e-01
       H -4.58576e-01 -1.05952e+00  5.67476e-01
       L  6.62430e+01 -1.81712e-01 -2.03421e+00
       L -3.59258e+00  1.60194e+01 -4.94295e+00
6
# CELL(abcABC):  459.05226   459.05226   459.05226    90.00000    90.00000    90.00000  Step:          23  Bead:       0 x_centroid{angstrom}  cell{atomic_unit}
       C -3.27136e-01 -8.52714e-02  3.70150e-02
       O  8.37072e-01  2.51095e-01 -1.28728e-01
       H -9.04633e-02  7.58996e-01 -7.76498e-01
       H -4.64358e-01 -1.06426e+00  5.63226e-01
       L  6.67193e+01 -1.41721e-01 -2.01478e+00
       L -3.44857e+00  1.63873e+01 -4.60315e+00
6
# CELL(abcABC):  459.05226   459.05226   459.05226    90.00000    90.00000    90.00000  Step:          24  Bead:       0 x_centroid{angstrom}  cell{atomic_unit}
       C -3.26247e-01 -8.50222e-02  3.47308e-02
       O  8.36743e-01  2.51143e-01 -1.26493e-01
       H -9.19117e-02  7.59711e-01 -7.82889e-01
       H -4.68623e-01 -1.06894e+00  5.61120e-01
       L  6.71854e+01 -1.03851e-01 -1.94877e+00
       L -3.27568e+00  1.67854e+01 -4.23228e+00
6
# CELL(abcABC):  459.05226   459.05226   459.05226    90.00000    90.00000    90.00000  Step:          25  Bead:       0 x_centroid{angstrom}  cell{atomic_unit}
       C -3.25320e-01 -8.45651e-02  3.22397e-02
       O  8.36488e-01  2.51036e-01 -1.24207e-01
       H -9.42999e-02  7.60019e-01 -7.89053e-01
       H -4.73638e-01 -1.07328e+00  5.60412e-01
       L  6.77125e+01 -3.85404e-02 -1.85736e+00
       L -3.06225e+00  1.72470e+01 -3.83061e+00
6
# CELL(abcABC):  459.05226   459.05226   459.05226    90.00000    90.00000    90.00000  Step:          26  Bead:       0 x_centroid{angstrom}  cell{atomic_unit}
       C -3.24733e-01 -8.39386e-02  2.97451e-02
       O  8.36435e-01  2.50693e-01 -1.22011e-01
       H -9.67607e-02  7.60814e-01 -7.93848e-01
       H -4.77762e-01 -1.07640e+00  5.59798e-01
       L  6.82974e+01  1.64447e-02 -1.77201e+00
       L -2.84850e+00  1.77502e+01 -3.41393e+00
6
# CELL(abcABC):  459.05226   459.05226   459.05226    90.00000    90.00000    90.00000  Step:          27  Bead:       0 x_centroid{angstrom}  cell{atomic_unit}
       C -3.24257e-01 -8.36287e-02  2.72262e-02
       O  8.36560e-01  2.50677e-01 -1.19877e-01
       H -9.99709e-02  7.59501e-01 -7.98247e-01
       H -4.82694e-01 -1.07884e+00  5.60055e-01
       L  6.89222e+01  7.65907e-02 -1.64643e+00
       L -2.59736e+00  1.82547e+01 -3.00635e+00
6
# CELL(abcABC):  459.05226   459.05226   459.05226    90.00000    90.00000    90.00000  Step:          28  Bead:       0 x_centroid{angstrom}  cell{atomic_unit}
       C -3.23637e-01 -8.35355e-02  2.44606e-02
       O  8.36649e-01  2.50794e-01 -1.17522e-01
       H -1.02883e-01  7.57467e-01 -8.03140e-01
       H -4.89089e-01 -1.08011e+00  5.60235e-01
       L  6.96060e+01  1.22200e-01 -1.49572e+00
       L -2.34620e+00  1.88293e+01 -2.63828e+00
6
# CELL(abcABC):  459.05226   459.05226   459.05226    90.00000    90.00000    90.00000  Step:          29  Bead:       0 x_centroid{angstrom}  cell{atomic_unit}
       C -3.22890e-01 -8.34633e-02  2.16759e-02
       O  8.36553e-01  2.50854e-01 -1.15203e-01
       H -1.04672e-01  7.55260e-01 -8.06715e-01
       H -4.95271e-01 -1.08004e+00  5.59881e-01
       L  7.03577e+01  1.27050e-01 -1.26641e+00
       L -2.00346e+00  1.94045e+01 -2.31175e+00
6
# CELL(abcABC):  459.05226   459.05226   459.05226    90.00000    90.00000    90.00000  Step:          30  Bead:       0 x_centroid{angstrom}  cell{atomic_unit}
       C -3.21896e-01 -8.38293e-02  1.89595e-02
       O  8.36224e-01  2.51156e-01 -1.12834e-01
       H -1.06961e-01  7.52831e-01 -8.09913e-01
       H -5.00279e-01 -1.07838e+00  5.57515e-01
       L  7.12046e+01  1.73698e-01 -1.04025e+00
       L -1.61029e+00  1.99789e+01 -1.93838e+00
6
# CELL(abcABC):  459.05226   459.05226   459.05226    90.00000    90.00000    90.00000  Step:          31  Bead:       0 x_centroid{angstrom}  cell{atomic_unit}
       C -3.20933e-01 -8.40377e-02  1.59197e-02
       O  8.35884e-01  2.51447e-01 -1.10206e-01
       H -1.09566e-01  7.48633e-01 -8.11711e-01
       H -5.04466e-01 -1.07670e+00  5.53500e-01
       L  7.21245e+01  2.24296e-01 -8.19107e-01
       L -1.22380e+00  2.06319e+01 -1.55007e+00
6
# CELL(abcABC):  459.05226   459.05226   459.05226    90.00000    90.00000    90.00000  Step:          32  Bead:       0 x_centroid{angstrom}  cell{atomic_unit}
       C -3.20006e-01 -8.42470e-02  1.30072e-02
       O  8.35428e-01  2.51752e-01 -1.07690e-01
       H -1.10751e-01  7.43395e-01 -8.13324e-01
       H -5.07806e-01 -1.07420e+00  5.49536e-01
       L  7.30974e+01  2.78113e-01 -5.84805e-01
       L -8.76114e-01  2.13070e+01 -1.16285e+00
6
# CELL(abcABC):  459.05226   459.05226   459.05226    90.00000    90.00000    90.00000  Step:          33  Bead:       0 x_centroid{angstrom}  cell{atomic_unit}
       C -3.18899e-01 -8.41431e-02  9.82661e-03
       O  8.34744e-01  2.51862e-01 -1.04961e-01
       H -1.11208e-01  7.37853e-01 -8.15082e-01
       H -5.10417e-01 -1.07206e+00  5.45502e-01
       L  7.41066e+01  3.16690e-01 -3.59886e-01
       L -5.27038e-01  2.20106e+01 -7.08701e-01
6
# CELL(abcABC):  459.05226   459.05226   459.05226    90.00000    90.00000    90.00000  Step:          34  Bead:       0 x_centroid{angstrom}  cell{atomic_unit}
       C -3.17657e-01 -8.39107e-02  6.64967e-03
       O  8.33900e-01  2.51810e-01 -1.02211e-01
       H -1.11618e-01  7.32788e-01 -8.17188e-01
       H -5.12184e-01 -1.06931e+00  5.41442e-01
       L  7.51449e+01  2.79484e-01 -1.31791e-01
       L -1.60638e-01  2.27335e+01 -2.59257e-01
6
# CELL(abcABC):  459.05226   459.05226   459.05226    90.00000    90.00000    90.00000  Step:          35  Bead:       0 x_centroid{angstrom}  cell{atomic_unit}
       C -3.16143e-01 -8.34927e-02  3.35683e-03
       O  8.33036e-01  2.51622e-01 -9.93423e-02
       H -1.14937e-01  7.27155e-01 -8.19206e-01
       H -5.13928e-01 -1.06601e+00  5.36768e-01
       L  7.61971e+01  2.30004e-01  1.47252e-01
       L  1.54064e-01  2.34163e+01  2.01209e-01
6
# CELL(abcABC):  459.05226   459.05226   459.05226    90.00000    90.00000    90.00000  Step:          36  Bead:       0 x_centroid{angstrom}  cell{atomic_unit}
       C -3.14901e-01 -8.30294e-02 -3.57246e-05
       O  8.32501e-01  2.51385e-01 -9.64055e-02
       H -1.21160e-01  7.21554e-01 -8.21902e-01
       H -5.14777e-01 -1.06251e+00  5.32864e-01
       L  7.72589e+01  1.59640e-01  4.45553e-01
       L  4.88259e-01  2.41120e+01  6.52127e-01
6
# CELL(abcABC):  459.05226   459.05226   459.05226    90.00000    90.00000    90.00000  Step:          37  Bead:       0 x_centroid{angstrom}  cell{atomic_unit}
       C -3.13603e-01 -8.27115e-02 -3.54573e-03
       O  8.32046e-01  2.51081e-01 -9.34472e-02
       H -1.29274e-01  7.17725e-01 -8.24313e-01
       H -5.15780e-01 -1.05797e+00  5.29739e-01
       L  7.84230e+01  9.16041e-02  7.92250e-01
       L  9.35995e-01  2.47858e+01  1.04867e+00
6
# CELL(abcABC):  459.05226   459.05226   459.05226    90.00000    90.00000    90.00000  Step:          38  Bead:       0 x_centroid{angstrom}  cell{atomic_unit}
       C -3.12090e-01 -8.20698e-02 -7.30234e-03
       O  8.31485e-01  2.50655e-01 -9.02663e-02
       H -1.40040e-01  7.13164e-01 -8.27982e-01
       H -5.15079e-01 -1.05459e+00  5.27295e-01
       L  7.96572e+01 -2.32808e-02  1.14520e+00
       L  1.41480e+00  2.54509e+01  1.40336e+00
6
# CELL(abcABC):  459.05226   459.05226   459.05226    90.00000    90.00000    90.00000  Step:          39  Bead:       0 x_centroid{angstrom}  cell{atomic_unit}
       C -3.10549e-01 -8.13343e-02 -1.06489e-02
       O  8.30853e-01  2.50206e-01 -8.73747e-02
       H -1.49872e-01  7.09395e-01 -8.31672e-01
       H -5.14517e-01 -1.05272e+00  5.24594e-01
       L  8.09739e+01 -2.05209e-01  1.48537e+00
       L  1.81574e+00  2.61169e+01  1.74223e+00
6
# CELL(abcABC):  459.05226   459.05226   459.05226    90.00000    90.00000    90.00000  Step:          40  Bead:       0 x_centroid{angstrom}  cell{atomic_unit}
       C -3.08573e-01 -8.05631e-02 -1.38859e-02
       O  8.29838e-01  2.49656e-01 -8.44638e-02
       H -1.59467e-01  7.08657e-01 -8.38356e-01
       H -5.13332e-01 -1.05273e+00  5.23318e-01
       L  8.23662e+01 -4.21076e-01  1.78574e+00
       L  2.22498e+00  2.68666e+01  2.04171e+00
6
# CELL(abcABC):  459.05226   459.05226   459.05226    90.00000    90.00000    90.00000  Step:          41  Bead:       0 x_centroid{angstrom}  cell{atomic_unit}
       C -3.06117e-01 -7.93601e-02 -1.73808e-02
       O  8.28366e-01  2.48710e-01 -8.12977e-02
       H -1.68860e-01  7.09016e-01 -8.45839e-01
       H -5.10860e-01 -1.05269e+00  5.21871e-01
       L  8.38605e+01 -6.12536e-01  2.06949e+00
       L  2.61677e+00  2.75716e+01  2.34588e+00
6
# CELL(abcABC):  459.05226   459.05226   459.05226    90.00000    90.00000    90.00000  Step:          42  Bead:       0 x_centroid{angstrom}  cell{atomic_unit}
       C -3.03308e-01 -7.77528e-02 -2.10019e-02
       O  8.26576e-01  2.47473e-01 -7.79140e-02
       H -1.78459e-01  7.10333e-01 -8.54932e-01
       H -5.07379e-01 -1.05383e+00  5.20153e-01
       L  8.54000e+01 -8.22145e-01  2.29195e+00
       L  3.01815e+00  2.83253e+01  2.57994e+00
6
# CELL(abcABC):  459.05226   459.05226   459.05226    90.00000    90.00000    90.00000  Step:          43  Bead:       0 x_centroid{angstrom}  cell{atomic_unit}
       C -3.00298e-01 -7.56899e-02 -2.47356e-02
       O  8.24813e-01  2.46054e-01 -7.44735e-02
       H -1.90277e-01  7.11411e-01 -8.62964e-01
       H -5.04535e-01 -1.05729e+00  5.17807e-01
       L  8.70066e+01 -1.04743e+00  2.55615e+00
       L  3.42573e+00  2.91455e+01  2.78725e+00
6
# CELL(abcABC):  459.05226   459.05226   459.05226    90.00000    90.00000    90.00000  Step:          44  Bead:       0 x_centroid{angstrom}  cell{atomic_unit}
       C -2.96877e-01 -7.36743e-02 -2.87839e-02
       O  8.23090e-01  2.44629e-01 -7.08824e-02
       H -2.07624e-01  7.13387e-01 -8.69054e-01
       H -5.01721e-01 -1.06104e+00  5.14917e-01
       L  8.87133e+01 -1.18933e+00  2.79697e+00
       L  3.77354e+00  2.99929e+01  2.94545e+00
6
# CELL(abcABC):  459.05226   459.05226   459.05226    90.00000    90.00000    90.00000  Step:          45  Bead:       0 x_centroid{angstrom}  cell{atomic_unit}
       C -2.93270e-01 -7.13370e-02 -3.29548e-02
       O  8.21622e-01  2.43082e-01 -6.70754e-02
       H -2.30629e-01  7.13174e-01 -8.75082e-01
       H -4.99551e-01 -1.06453e+00  5.10036e-01
       L  9.05026e+01 -1.33280e+00  3.00523e+00
       L  4.07818e+00  3.08870e+01  3.06939e+00
6
# CELL(abcABC):  459.05226   459.05226   459.05226    90.00000    90.00000    90.00000  Step:          46  Bead:       0 x_centroid{angstrom}  cell{atomic_unit}
       C -2.89457e-01 -6.89767e-02 -3.72844e-02
       O  8.20312e-01  2.41445e-01 -6.30995e-02
       H -2.58599e-01  7.12367e-01 -8.81539e-01
       H -4.97426e-01 -1.06632e+00  5.04809e-01
       L  9.24527e+01 -1.45265e+00  3.19820e+00
       L  4.37075e+00  3.18257e+01  3.17794e+00
6
# CELL(abcABC):  459.05226   459.05226   459.05226    90.00000    90.00000    90.00000  Step:          47  Bead:       0 x_centroid{angstrom}  cell{atomic_unit}
       C -2.85405e-01 -6.64263e-02 -4.17660e-02
       O  8.19190e-01  2.39802e-01 -5.88948e-02
       H -2.90912e-01  7.10332e-01 -8.87868e-01
       H -4.96834e-01 -1.06901e+00  4.97640e-01
       L  9.44909e+01 -1.56729e+00  3.37287e+00
       L  4.61846e+00  3.26992e+01  3.29583e+00
6
# CELL(abcABC):  459.05226   459.05226   459.05226    90.00000    90.00000    90.00000  Step:          48  Bead:       0 x_centroid{angstrom}  cell{atomic_unit}
       C -2.80903e-01 -6.39420e-02 -4.63287e-02
       O  8.18182e-01  2.38254e-01 -5.44835e-02
       H -3.29461e-01  7.07103e-01 -8.95303e-01
       H -4.97239e-01 -1.07123e+00  4.89263e-01
       L  9.66817e+01 -1.67228e+00  3.57817e+00
       L  4.82059e+00  3.35745e+01  3.38090e+00
6
# CELL(abcABC):  459.05226   459.05226   459.05226    90.00000    90.00000    90.00000  Step:          49  Bead:       0 x_centroid{angstrom}  cell{atomic_unit}
       C -2.75827e-01 -6.12716e-02 -5.08479e-02
       O  8.17195e-01  2.36671e-01 -4.99352e-02
       H -3.74163e-01  7.01786e-01 -9.03633e-01
       H -4.98676e-01 -1.07305e+00  4.79113e-01
       L  9.89499e+01 -1.73291e+00  3.75971e+00
       L  4.98453e+00  3.44763e+01  3.44646e+00
6
# CELL(abcABC):  459.05226   459.05226   459.05226    90.00000    90.00000    90.00000  Step:          50  Bead:       0 x_centroid{angstrom}  cell{atomic_unit}
       C -2.70213e-01 -5.88204e-02 -5.55439e-02
       O  8.16545e-01  2.35352e-01 -4.50369e-02
       H -4.28351e-01  6.93966e-01 -9.14145e-01
       H -5.02490e-01 -1.07399e+00  4.67715e-01
       L  1.01383e+02 -1.77896e+00  3.94645e+00
       L  5.15864e+00  3.53914e+01  3.47195e+00
6
# CELL(abcABC):  459.05226   459.05226   459.05226    90.00000    90.00000    90.00000  Step:          51  Bead:       0 x_centroid{angstrom}  cell{atomic_unit}
       C -2.64201e-01 -5.58109e-02 -6.04897e-02
       O  8.16329e-01  2.33602e-01 -3.97464e-02
       H -4.91077e-01  6.84356e-01 -9.26054e-01
       H -5.09444e-01 -1.07294e+00  4.54521e-01
       L  1.03907e+02 -1.81272e+00  4.08744e+00
       L  5.33539e+00  3.63341e+01  3.44067e+00
6
# CELL(abcABC):  459.05226   459.05226   459.05226    90.00000    90.00000    90.00000  Step:          52  Bead:       0 x_centroid{angstrom}  cell{atomic_unit}
       C -2.57919e-01 -5.27741e-02 -6.55988e-02
       O  8.16635e-01  2.31934e-01 -3.42144e-02
       H -5.62532e-01  6.71926e-01 -9.37333e-01
       H -5.19210e-01 -1.07074e+00  4.38895e-01
       L  1.06543e+02 -1.85774e+00  4.14381e+00
       L  5.47226e+00  3.73228e+01  3.33654e+00
6
# CELL(abcABC):  459.05226   459.05226   459.05226    90.00000    90.00000    90.00000  Step:          53  Bead:       0 x_centroid{angstrom}  cell{atomic_unit}
       C -2.51675e-01 -4.97839e-02 -7.09244e-02
       O  8.17661e-01  2.30386e-01 -2.85902e-02
       H -6.41925e-01  6.55695e-01 -9.45583e-01
       H -5.32004e-01 -1.06606e+00  4.21419e-01
       L  1.09218e+02 -1.98827e+00  4.13824e+00
       L  5.54693e+00  3.83483e+01  3.18048e+00
6
# CELL(abcABC):  459.05226   459.05226   459.05226    90.00000    90.00000    90.00000  Step:          54  Bead:       0 x_centroid{angstrom}  cell{atomic_unit}
       C -2.46049e-01 -4.70635e-02 -7.66669e-02
       O  8.19634e-01  2.29096e-01 -2.27800e-02
       H -7.27492e-01  6.35067e-01 -9.50953e-01
       H -5.46316e-01 -1.05789e+00  4.03098e-01
       L  1.11976e+02 -2.08969e+00  4.09703e+00
       L  5.58757e+00  3.93833e+01  3.02124e+00
6
# CELL(abcABC):  459.05226   459.05226   459.05226    90.00000    90.00000    90.00000  Step:          55  Bead:       0 x_centroid{angstrom}  cell{atomic_unit}
       C -2.41784e-01 -4.48582e-02 -8.28090e-02
       O  8.23023e-01  2.28345e-01 -1.68037e-02
       H -8.16225e-01  6.09729e-01 -9.51812e-01
       H -5.63672e-01 -1.04740e+00  3.82405e-01
       L  1.14737e+02 -2.18473e+00  4.02682e+00
       L  5.54785e+00  4.04042e+01  2.86654e+00
6
# CELL(abcABC):  459.05226   459.05226   459.05226    90.00000    90.00000    90.00000  Step:          56  Bead:       0 x_centroid{angstrom}  cell{atomic_unit}
       C -2.39440e-01 -4.29153e-02 -8.96801e-02
       O  8.27951e-01  2.27818e-01 -1.06301e-02
       H -9.04854e-01  5.79160e-01 -9.45156e-01
       H -5.82626e-01 -1.03210e+00  3.59784e-01
       L  1.17471e+02 -2.26987e+00  3.94523e+00
       L  5.42864e+00  4.13708e+01  2.66498e+00
6
# CELL(abcABC):  459.05226   459.05226   459.05226    90.00000    90.00000    90.00000  Step:          57  Bead:       0 x_centroid{angstrom}  cell{atomic_unit}
       C -2.39425e-01 -4.17576e-02 -9.73178e-02
       O  8.34676e-01  2.27927e-01 -4.25965e-03
       H -9.91126e-01  5.43961e-01 -9.30547e-01
       H -6.04644e-01 -1.01291e+00  3.35245e-01
       L  1.20152e+02 -2.31663e+00  3.81205e+00
       L  5.23328e+00  4.22889e+01  2.46993e+00
6
# CELL(abcABC):  459.05226   459.05226   459.05226    90.00000    90.00000    90.00000  Step:          58  Bead:       0 x_centroid{angstrom}  cell{atomic_unit}
       C -2.41696e-01 -4.11444e-02 -1.05642e-01
       O  8.42989e-01  2.28522e-01  2.24109e-03
       H -1.07261e+00  5.05904e-01 -9.09289e-01
       H -6.29343e-01 -9.92098e-01  3.10189e-01
       L  1.22775e+02 -2.33493e+00  3.65912e+00
       L  4.97043e+00  4.32296e+01  2.24769e+00
6
# CELL(abcABC):  459.05226   459.05226   459.05226    90.00000    90.00000    90.00000  Step:          59  Bead:       0 x_centroid{angstrom}  cell{atomic_unit}
       C -2.45955e-01 -4.09549e-02 -1.15040e-01
       O  8.52385e-01  2.29553e-01  9.16209e-03
       H -1.14606e+00  4.64528e-01 -8.82602e-01
       H -6.55535e-01 -9.69846e-01  2.85843e-01
       L  1.25393e+02 -2.35401e+00  3.49169e+00
       L  4.64348e+00  4.41680e+01  2.04034e+00
6
# CELL(abcABC):  459.05226   459.05226   459.05226    90.00000    90.00000    90.00000  Step:          60  Bead:       0 x_centroid{angstrom}  cell{atomic_unit}
       C -2.51276e-01 -4.10853e-02 -1.24825e-01
       O  8.62161e-01  2.30871e-01  1.60022e-02
       H -1.21326e+00  4.21911e-01 -8.50895e-01
       H -6.81307e-01 -9.47075e-01  2.62359e-01
       L  1.28005e+02 -2.39026e+00  3.32800e+00
       L  4.26291e+00  4.50795e+01  1.82197e+00
6
# CELL(abcABC):  459.05226   459.05226   459.05226    90.00000    90.00000    90.00000  Step:          61  Bead:       0 x_centroid{angstrom}  cell{atomic_unit}
       C -2.56827e-01 -4.14254e-02 -1.34829e-01
       O  8.71637e-01  2.32572e-01  2.26194e-02
       H -1.27232e+00  3.78787e-01 -8.15812e-01
       H -7.07760e-01 -9.27384e-01  2.41684e-01
       L  1.30683e+02 -2.41803e+00  3.14815e+00
       L  3.86025e+00  4.60012e+01  1.58470e+00
6
# CELL(abcABC):  459.05226   459.05226   459.05226    90.00000    90.00000    90.00000  Step:          62  Bead:       0 x_centroid{angstrom}  cell{atomic_unit}
       C -2.61663e-01 -4.16652e-02 -1.45151e-01
       O  8.80067e-01  2.34243e-01  2.90558e-02
       H -1.32402e+00  3.39518e-01 -7.77790e-01
       H -7.33487e-01 -9.12265e-01  2.24748e-01
       L  1.33447e+02 -2.46250e+00  2.95226e+00
       L  3.38272e+00  4.69249e+01  1.30214e+00
6
# CELL(abcABC):  459.05226   459.05226   459.05226    90.00000    90.00000    90.00000  Step:          63  Bead:       0 x_centroid{angstrom}  cell{atomic_unit}
       C -2.65169e-01 -4.19279e-02 -1.55375e-01
       O  8.87065e-01  2.35983e-01  3.51853e-02
       H -1.37046e+00  3.04372e-01 -7.38510e-01
       H -7.57633e-01 -9.02121e-01  2.10260e-01
       L  1.36291e+02 -2.43884e+00  2.74401e+00
       L  2.87045e+00  4.78641e+01  1.04394e+00
6
# CELL(abcABC):  459.05226   459.05226   459.05226    90.00000    90.00000    90.00000  Step:          64  Bead:       0 x_centroid{angstrom}  cell{atomic_unit}
       C -2.66561e-01 -4.20294e-02 -1.64891e-01
       O  8.91944e-01  2.37553e-01  4.07282e-02
       H -1.41065e+00  2.73740e-01 -7.00555e-01
       H -7.79605e-01 -8.95762e-01  1.97976e-01
       L  1.39251e+02 -2.41127e+00  2.56905e+00
       L  2.32665e+00  4.88539e+01  7.26792e-01
6
# CELL(abcABC):  459.05226   459.05226   459.05226    90.00000    90.00000    90.00000  Step:          65  Bead:       0 x_centroid{angstrom}  cell{atomic_unit}
       C -2.65767e-01 -4.22701e-02 -1.73578e-01
       O  8.94545e-01  2.39142e-01  4.57723e-02
       H -1.44413e+00  2.49513e-01 -6.66814e-01
       H -7.98214e-01 -8.94476e-01  1.87958e-01
       L  1.42280e+02 -2.34013e+00  2.36416e+00
       L  1.74923e+00  4.98728e+01  4.23625e-01
6
# CELL(abcABC):  459.05226   459.05226   459.05226    90.00000    90.00000    90.00000  Step:          66  Bead:       0 x_centroid{angstrom}  cell{atomic_unit}
       C -2.63248e-01 -4.28180e-02 -1.81600e-01