6
# CELL(abcABC):  459.05226   459.05226   459.05226    90.00000    90.00000    90.00000  Step:           0  Bead:       0 x_centroid{angstrom}  cell{atomic_unit}
       C -3.39887e-01 -1.13437e-01  8.06659e-02
       O  8.43483e-01  2.62672e-01 -1.81512e-01
       H -7.35799e-02  8.16467e-01 -6.61432e-01
       H -4.30016e-01 -9.65701e-01  7.62278e-01
       L  6.13458e+01  0.00000e+00  0.00000e+00
       L  0.00000e+00  8.59064e+00  0.00000e+00
6
# CELL(abcABC):  459.05226   459.05226   459.05226    90.00000    90.00000    90.00000  Step:           1  Bead:       0 x_centroid{angstrom}  cell{atomic_unit}
       C -3.40717e-01 -1.11745e-01  8.37398e-02
       O  8.43593e-01  2.62462e-01 -1.82720e-01
       H -7.20760e-02  8.05860e-01 -6.63474e-01
       H -4.23569e-01 -9.71905e-01  7.47035e-01
       L  6.16490e+01  2.17004e-01 -1.09567e-01
       L  8.19260e-02  8.31885e+00 -2.01621e-01
6
# CELL(abcABC):  459.05226   459.05226   459.05226    90.00000    90.00000    90.00000  Step:           2  Bead:       0 x_centroid{angstrom}  cell{atomic_unit}
       C -3.41424e-01 -1.10091e-01  8.66914e-02
       O  8.43558e-01  2.62121e-01 -1.83920e-01
       H -6.97543e-02  7.97959e-01 -6.66419e-01
       H -4.17150e-01 -9.78238e-01  7.34029e-01
       L  6.19740e+01  3.56778e-01 -2.06357e-01
       L  1.79054e-01  8.07932e+00 -4.30119e-01
6
# CELL(abcABC):  459.05226   459.05226   459.05226    90.00000    90.00000    90.00000  Step:           3  Bead:       0 x_centroid{angstrom}  cell{atomic_unit}
       C -3.42011e-01 -1.08550e-01  8.95974e-02
       O  8.43529e-01  2.61642e-01 -1.85029e-01
       H -6.86567e-02  7.93501e-01 -6.71645e-01
       H -4.11047e-01 -9.84501e-01  7.22371e-01
       L  6.22794e+01  4.40354e-01 -2.71904e-01
       L  3.42276e-01  7.91348e+00 -6.37821e-01
6
# CELL(abcABC):  459.05226   459.05226   459.05226    90.00000    90.00000    90.00000  Step:           4  Bead:       0 x_centroid{angstrom}  cell{atomic_unit}
       C -3.42413e-01 -1.06948e-01  9.23591e-02
       O  8.43407e-01  2.60935e-01 -1.86139e-01
       H -6.82066e-02  7.93529e-01 -6.79207e-01
       H -4.05027e-01 -9.92425e-01  7.14739e-01
       L  6.25759e+01  5.92481e-01 -2.24531e-01
       L  5.07400e-01  7.82915e+00 -8.46605e-01
6
# CELL(abcABC):  459.05226   459.05226   459.05226    90.00000    90.00000    90.00000  Step:           5  Bead:       0 x_centroid{angstrom}  cell{atomic_unit}
       C -3.43005e-01 -1.05431e-01  9.48976e-02
       O  8.43545e-01  2.60056e-01 -1.87176e-01
       H -6.96720e-02  7.97644e-01 -6.87770e-01
       H -3.98940e-01 -1.00074e+00  7.09570e-01
       L  6.28641e+01  6.98375e-01 -1.86753e-01
       L  6.79009e-01  7.84639e+00 -1.00234e+00
6
# CELL(abcABC):  459.05226   459.05226   459.05226    90.00000    90.00000    90.00000  Step:           6  Bead:       0 x_centroid{angstrom}  cell{atomic_unit}
       C -3.43812e-01 -1.04117e-01  9.73101e-02
       O  8.44090e-01  2.59098e-01 -1.88144e-01
       H -7.39515e-02  8.05829e-01 -6.96827e-01
       H -3.93950e-01 -1.00940e+00  7.05285e-01
       L  6.31346e+01  7.36609e-01 -1.01733e-01
       L  8.63198e-01  7.84469e+00 -1.15546e+00
6
# CELL(abcABC):  459.05226   459.05226   459.05226    90.00000    90.00000    90.00000  Step:           7  Bead:       0 x_centroid{angstrom}  cell{atomic_unit}
       C -3.44663e-01 -1.02795e-01  9.92600e-02
       O  8.44909e-01  2.58038e-01 -1.88893e-01
       H -8.12411e-02  8.16961e-01 -7.05422e-01
       H -3.89797e-01 -1.01951e+00  7.02573e-01
       L  6.34320e+01  7.88215e-01 -3.70448e-02
       L  1.08003e+00  7.90404e+00 -1.29465e+00
6
# CELL(abcABC):  459.05226   459.05226   459.05226    90.00000    90.00000    90.00000  Step:           8  Bead:       0 x_centroid{angstrom}  cell{atomic_unit}
       C -3.45338e-01 -1.01331e-01  1.00984e-01
       O  8.45789e-01  2.56810e-01 -1.89682e-01
       H -9.11968e-02  8.29901e-01 -7.12895e-01
       H -3.85987e-01 -1.03047e+00  7.02073e-01
       L  6.36835e+01  8.08741e-01  3.17750e-02
       L  1.22472e+00  8.01520e+00 -1.44704e+00
6
# CELL(abcABC):  459.05226   459.05226   459.05226    90.00000    90.00000    90.00000  Step:           9  Bead:       0 x_centroid{angstrom}  cell{atomic_unit}
       C -3.45440e-01 -9.98722e-02  1.02529e-01
       O  8.46276e-01  2.55704e-01 -1.90414e-01
       H -1.01449e-01  8.39936e-01 -7.19653e-01
       H -3.82508e-01 -1.04038e+00  7.02097e-01
       L  6.39851e+01  7.14402e-01  3.74511e-02
       L  1.41729e+00  8.19298e+00 -1.54200e+00
6
# CELL(abcABC):  459.05226   459.05226   459.05226    90.00000    90.00000    90.00000  Step:          10  Bead:       0 x_centroid{angstrom}  cell{atomic_unit}
       C -3.45076e-01 -9.85634e-02  1.04121e-01
       O  8.46279e-01  2.54795e-01 -1.91298e-01
       H -1.08856e-01  8.46620e-01 -7.23373e-01
       H -3.79779e-01 -1.04825e+00  7.00889e-01
       L  6.43370e+01  6.35024e-01  7.23382e-02
       L  1.60481e+00  8.31073e+00 -1.60273e+00
6
# CELL(abcABC):  459.05226   459.05226   459.05226    90.00000    90.00000    90.00000  Step:          11  Bead:       0 x_centroid{angstrom}  cell{atomic_unit}
       C -3.44368e-01 -9.71006e-02  1.05479e-01
       O  8.45813e-01  2.53897e-01 -1.92054e-01
       H -1.13398e-01  8.48132e-01 -7.24637e-01
       H -3.76580e-01 -1.05295e+00  6.97988e-01
       L  6.47229e+01  5.58902e-01  1.26906e-01
       L  1.77225e+00  8.41675e+00 -1.66886e+00
6
# CELL(abcABC):  459.05226   459.05226   459.05226    90.00000    90.00000    90.00000  Step:          12  Bead:       0 x_centroid{angstrom}  cell{atomic_unit}
       C -3.43473e-01 -9.55647e-02  1.06627e-01
       O  8.44947e-01  2.53038e-01 -1.92809e-01
       H -1.14292e-01  8.45367e-01 -7.21795e-01
       H -3.72890e-01 -1.05485e+00  6.93458e-01
       L  6.51138e+01  4.75856e-01  1.49046e-01
       L  1.90459e+00  8.47593e+00 -1.72363e+00
6
# CELL(abcABC):  459.05226   459.05226   459.05226    90.00000    90.00000    90.00000  Step:          13  Bead:       0 x_centroid{angstrom}  cell{atomic_unit}
       C -3.42355e-01 -9.38957e-02  1.07719e-01
       O  8.43799e-01  2.52231e-01 -1.93697e-01
       H -1.12790e-01  8.38692e-01 -7.15942e-01
       H -3.69769e-01 -1.05528e+00  6.88648e-01
       L  6.55276e+01  4.55938e-01  1.85340e-01
       L  1.99708e+00  8.53946e+00 -1.70124e+00
6
# CELL(abcABC):  459.05226   459.05226   459.05226    90.00000    90.00000    90.00000  Step:          14  Bead:       0 x_centroid{angstrom}  cell{atomic_unit}
       C -3.40880e-01 -9.22515e-02  1.08412e-01
       O  8.42366e-01  2.51558e-01 -1.94448e-01
       H -1.09995e-01  8.29708e-01 -7.07710e-01
       H -3.67649e-01 -1.05520e+00  6.84035e-01
       L  6.59301e+01  3.95161e-01  2.90878e-01
       L  2.07109e+00  8.58310e+00 -1.71768e+00
6
# CELL(abcABC):  459.05226   459.05226   459.05226    90.00000    90.00000    90.00000  Step:          15  Bead:       0 x_centroid{angstrom}  cell{atomic_unit}
       C -3.39376e-01 -9.10928e-02  1.08656e-01
       O  8.41019e-01  2.51177e-01 -1.95053e-01
       H -1.09124e-01  8.19668e-01 -6.96165e-01
       H -3.65360e-01 -1.05294e+00  6.79122e-01
       L  6.63837e+01  3.55696e-01  3.99369e-01
       L  2.16237e+00  8.65636e+00 -1.71574e+00
6
# CELL(abcABC):  459.05226   459.05226   459.05226    90.00000    90.00000    90.00000  Step:          16  Bead:       0 x_centroid{angstrom}  cell{atomic_unit}
       C -3.38068e-01 -8.99650e-02  1.08794e-01
       O  8.40050e-01  2.50649e-01 -1.95587e-01
       H -1.10019e-01  8.10862e-01 -6.84539e-01
       H -3.64951e-01 -1.04916e+00  6.74326e-01
       L  6.67950e+01  2.73816e-01  4.25904e-01
       L  2.25563e+00  8.70614e+00 -1.72532e+00
6
# CELL(abcABC):  459.05226   459.05226   459.05226    90.00000    90.00000    90.00000  Step:          17  Bead:       0 x_centroid{angstrom}  cell{atomic_unit}
       C -3.36654e-01 -8.92509e-02  1.08806e-01
       O  8.39355e-01  2.50170e-01 -1.96135e-01
       H -1.14510e-01  8.02731e-01 -6.71419e-01
       H -3.66498e-01 -1.04196e+00  6.69716e-01
       L  6.71651e+01  2.44090e-01  4.81794e-01
       L  2.28182e+00  8.76865e+00 -1.69282e+00
6
# CELL(abcABC):  459.05226   459.05226   459.05226    90.00000    90.00000    90.00000  Step:          18  Bead:       0 x_centroid{angstrom}  cell{atomic_unit}
       C -3.35180e-01 -8.89546e-02  1.08587e-01
       O  8.38862e-01  2.49703e-01 -1.96588e-01
       H -1.21070e-01  7.99966e-01 -6.58324e-01
       H -3.69890e-01 -1.03537e+00  6.66365e-01
       L  6.75153e+01  2.10317e-01  4.76513e-01
       L  2.33326e+00  8.91287e+00 -1.60109e+00
6
# CELL(abcABC):  459.05226   459.05226   459.05226    90.00000    90.00000    90.00000  Step:          19  Bead:       0 x_centroid{angstrom}  cell{atomic_unit}
       C -3.33163e-01 -8.86850e-02  1.08427e-01
       O  8.37927e-01  2.49041e-01 -1.97150e-01
       H -1.26320e-01  8.02507e-01 -6.46682e-01
       H -3.74040e-01 -1.03071e+00  6.65489e-01
       L  6.78487e+01  2.04152e-01  4.84998e-01
       L  2.39036e+00  9.08918e+00 -1.47942e+00
6
# CELL(abcABC):  459.05226   459.05226   459.05226    90.00000    90.00000    90.00000  Step:          20  Bead:       0 x_centroid{angstrom}  cell{atomic_unit}
       C -3.30665e-01 -8.83584e-02  1.08416e-01
       O  8.36631e-01  2.48119e-01 -1.97953e-01
       H -1.30493e-01  8.11546e-01 -6.37385e-01
       H -3.79289e-01 -1.02912e+00  6.68947e-01
       L  6.82214e+01  1.89986e-01  4.95698e-01
       L  2.42483e+00  9.31303e+00 -1.29517e+00
6
# CELL(abcABC):  459.05226   459.05226   459.05226    90.00000    90.00000    90.00000  Step:          21  Bead:       0 x_centroid{angstrom}  cell{atomic_unit}
       C -3.27730e-01 -8.80317e-02  1.08108e-01
       O  8.34900e-01  2.46956e-01 -1.98524e-01
       H -1.32430e-01  8.25665e-01 -6.30731e-01
       H -3.85127e-01 -1.02881e+00  6.74929e-01
       L  6.86774e+01  1.85753e-01  4.87072e-01
       L  2.48026e+00  9.56037e+00 -1.08209e+00
6
# CELL(abcABC):  459.05226   459.05226   459.05226    90.00000    90.00000    90.00000  Step:          22  Bead:       0 x_centroid{angstrom}  cell{atomic_unit}
       C -3.24586e-01 -8.77510e-02  1.07617e-01
       O  8.33105e-01  2.45655e-01 -1.99025e-01
       H -1.34363e-01  8.43846e-01 -6.25149e-01
       H -3.92393e-01 -1.02981e+00  6.83024e-01
       L  6.91151e+01  1.76472e-01  5.21973e-01
       L  2.47906e+00  9.82710e+00 -8.72976e-01
6
# CELL(abcABC):  459.05226   459.05226   459.05226    90.00000    90.00000    90.00000  Step:          23  Bead:       0 x_centroid{angstrom}  cell{atomic_unit}
       C -3.21518e-01 -8.77676e-02  1.07156e-01
       O  8.31530e-01  2.44513e-01 -1.99585e-01
       H -1.36833e-01  8.63513e-01 -6.19560e-01
       H -4.01692e-01 -1.03134e+00  6.91701e-01
       L  6.95158e+01  1.60907e-01  5.27537e-01
       L  2.45191e+00  1.01707e+01 -6.78887e-01
6
# CELL(abcABC):  459.05226   459.05226   459.05226    90.00000    90.00000    90.00000  Step:          24  Bead:       0 x_centroid{angstrom}  cell{atomic_unit}
       C -3.18327e-01 -8.78242e-02  1.06849e-01
       O  8.30204e-01  2.43551e-01 -2.00180e-01
       H -1.43558e-01  8.79991e-01 -6.12963e-01
       H -4.12096e-01 -1.03203e+00  6.98086e-01
       L  6.98909e+01  1.40382e-01  5.58507e-01
       L  2.34952e+00  1.04913e+01 -4.83236e-01
6
# CELL(abcABC):  459.05226   459.05226   459.05226    90.00000    90.00000    90.00000  Step:          25  Bead:       0 x_centroid{angstrom}  cell{atomic_unit}
       C -3.15098e-01 -8.78132e-02  1.06169e-01
       O  8.29310e-01  2.42712e-01 -2.00597e-01
       H -1.54144e-01  8.91527e-01 -6.02489e-01
       H -4.25965e-01 -1.03058e+00  7.02193e-01
       L  7.03107e+01  1.44844e-01  6.05938e-01
       L  2.25585e+00  1.08369e+01 -2.61711e-01
6
# CELL(abcABC):  459.05226   459.05226   459.05226    90.00000    90.00000    90.00000  Step:          26  Bead:       0 x_centroid{angstrom}  cell{atomic_unit}
       C -3.11673e-01 -8.75394e-02  1.05285e-01
       O  8.28432e-01  2.41779e-01 -2.00959e-01
       H -1.67039e-01  8.99063e-01 -5.88786e-01
       H -4.40121e-01 -1.02675e+00  7.04595e-01
       L  7.07556e+01  1.95937e-01  7.00982e-01
       L  2.13595e+00  1.11255e+01 -5.33758e-02
6
# CELL(abcABC):  459.05226   459.05226   459.05226    90.00000    90.00000    90.00000  Step:          27  Bead:       0 x_centroid{angstrom}  cell{atomic_unit}
       C -3.08356e-01 -8.70407e-02  1.04302e-01
       O  8.27484e-01  2.40899e-01 -2.01348e-01
       H -1.77805e-01  9.01306e-01 -5.72564e-01
       H -4.54044e-01 -1.02112e+00  7.06106e-01
       L  7.12375e+01  2.04645e-01  7.59621e-01
       L  2.01666e+00  1.13946e+01  1.87305e-01
6
# CELL(abcABC):  459.05226   459.05226   459.05226    90.00000    90.00000    90.00000  Step:          28  Bead:       0 x_centroid{angstrom}  cell{atomic_unit}
       C -3.04809e-01 -8.65097e-02  1.03112e-01
       O  8.26016e-01  2.40313e-01 -2.01690e-01
       H -1.83998e-01  8.99426e-01 -5.53882e-01
       H -4.67108e-01 -1.01639e+00  7.06871e-01
       L  7.18343e+01  2.34928e-01  8.13463e-01
       L  1.97154e+00  1.16022e+01  4.21269e-01
6
# CELL(abcABC):  459.05226   459.05226   459.05226    90.00000    90.00000    90.00000  Step:          29  Bead:       0 x_centroid{angstrom}  cell{atomic_unit}
       C -3.00907e-01 -8.61484e-02  1.01898e-01
       O  8.23811e-01  2.39939e-01 -2.02073e-01
       H -1.85428e-01  8.96065e-01 -5.34089e-01
       H -4.77523e-01 -1.01149e+00  7.07455e-01
       L  7.25879e+01  2.52319e-01  9.13483e-01
       L  1.86230e+00  1.17538e+01  6.29395e-01
6
# CELL(abcABC):  459.05226   459.05226   459.05226    90.00000    90.00000    90.00000  Step:          30  Bead:       0 x_centroid{angstrom}  cell{atomic_unit}
       C -2.96992e-01 -8.57621e-02  1.00818e-01
       O  8.21286e-01  2.39715e-01 -2.02605e-01
       H -1.83955e-01  8.90876e-01 -5.14378e-01
       H -4.85926e-01 -1.00745e+00  7.08854e-01
       L  7.33823e+01  2.59270e-01  1.06649e+00
       L  1.73614e+00  1.19256e+01  8.53614e-01
6
# CELL(abcABC):  459.05226   459.05226   459.05226    90.00000    90.00000    90.00000  Step:          31  Bead:       0 x_centroid{angstrom}  cell{atomic_unit}
       C -2.93240e-01 -8.55020e-02  9.94752e-02
       O  8.18609e-01  2.39515e-01 -2.02935e-01
       H -1.80959e-01  8.86847e-01 -4.94476e-01
       H -4.91543e-01 -1.00345e+00  7.09960e-01
       L  7.42606e+01  2.51863e-01  1.23038e+00
       L  1.58985e+00  1.21308e+01  1.10113e+00
6
# CELL(abcABC):  459.05226   459.05226   459.05226    90.00000    90.00000    90.00000  Step:          32  Bead:       0 x_centroid{angstrom}  cell{atomic_unit}
       C -2.89952e-01 -8.51398e-02  9.81360e-02
       O  8.16287e-01  2.39124e-01 -2.03277e-01
       H -1.79667e-01  8.83626e-01 -4.74788e-01
       H -4.95549e-01 -9.98480e-01  7.11452e-01
       L  7.52255e+01  2.61596e-01  1.38648e+00
       L  1.36254e+00  1.23771e+01  1.33639e+00
6
# CELL(abcABC):  459.05226   459.05226   459.05226    90.00000    90.00000    90.00000  Step:          33  Bead:       0 x_centroid{angstrom}  cell{atomic_unit}
       C -2.87396e-01 -8.48837e-02  9.64670e-02
       O  8.14661e-01  2.38578e-01 -2.03282e-01
       H -1.81791e-01  8.82841e-01 -4.55978e-01
       H -4.98496e-01 -9.92216e-01  7.12418e-01
       L  7.62033e+01  2.50173e-01  1.57681e+00
       L  1.13318e+00  1.26307e+01  1.50961e+00
6
# CELL(abcABC):  459.05226   459.05226   459.05226    90.00000    90.00000    90.00000  Step:          34  Bead:       0 x_centroid{angstrom}  cell{atomic_unit}
       C -2.85304e-01 -8.49432e-02  9.53311e-02
       O  8.13756e-01  2.38013e-01 -2.03629e-01
       H -1.90845e-01  8.85666e-01 -4.37867e-01
       H -5.00415e-01 -9.85499e-01  7.13169e-01
       L  7.72169e+01  2.65607e-01  1.77778e+00
       L  8.82136e-01  1.28767e+01  1.63157e+00
6
# CELL(abcABC):  459.05226   459.05226   459.05226    90.00000    90.00000    90.00000  Step:          35  Bead:       0 x_centroid{angstrom}  cell{atomic_unit}
       C -2.83751e-01 -8.51216e-02  9.42843e-02
       O  8.13549e-01  2.37181e-01 -2.03966e-01
       H -2.05732e-01  8.94380e-01 -4.22621e-01
       H -5.01192e-01 -9.78998e-01  7.15586e-01
       L  7.83004e+01  2.63942e-01  1.98130e+00
       L  6.26496e-01  1.30966e+01  1.72142e+00
6
# CELL(abcABC):  459.05226   459.05226   459.05226    90.00000    90.00000    90.00000  Step:          36  Bead:       0 x_centroid{angstrom}  cell{atomic_unit}
       C -2.82585e-01 -8.53518e-02  9.31834e-02
       O  8.13741e-01  2.36104e-01 -2.04229e-01
       H -2.23792e-01  9.08103e-01 -4.09213e-01
       H -5.00566e-01 -9.72988e-01  7.19372e-01
       L  7.94511e+01  2.19360e-01  2.13417e+00
       L  3.76549e-01  1.33291e+01  1.74896e+00
6
# CELL(abcABC):  459.05226   459.05226   459.05226    90.00000    90.00000    90.00000  Step:          37  Bead:       0 x_centroid{angstrom}  cell{atomic_unit}
       C -2.81463e-01 -8.53151e-02  9.16216e-02
       O  8.13896e-01  2.34601e-01 -2.04196e-01
       H -2.43385e-01  9.27121e-01 -3.96993e-01
       H -4.97323e-01 -9.68663e-01  7.25157e-01
       L  8.06693e+01  1.44056e-01  2.27132e+00
       L  1.04588e-01  1.35440e+01  1.75784e+00
6
# CELL(abcABC):  459.05226   459.05226   459.05226    90.00000    90.00000    90.00000  Step:          38  Bead:       0 x_centroid{angstrom}  cell{atomic_unit}
       C -2.80197e-01 -8.52927e-02  8.98708e-02
       O  8.13763e-01  2.32949e-01 -2.04156e-01
       H -2.62211e-01  9.50494e-01 -3.85258e-01
       H -4.92048e-01 -9.66145e-01  7.33575e-01
       L  8.20278e+01  2.67667e-02  2.40520e+00
       L -1.75278e-01  1.37869e+01  1.76072e+00
6
# CELL(abcABC):  459.05226   459.05226   459.05226    90.00000    90.00000    90.00000  Step:          39  Bead:       0 x_centroid{angstrom}  cell{atomic_unit}
       C -2.78702e-01 -8.51573e-02  8.79262e-02
       O  8.13377e-01  2.31268e-01 -2.04178e-01
       H -2.81175e-01  9.74634e-01 -3.73070e-01
       H -4.85416e-01 -9.65289e-01  7.44874e-01
       L  8.34745e+01 -7.91479e-02  2.54039e+00
       L -4.47548e-01  1.40245e+01  1.70843e+00
6
# CELL(abcABC):  459.05226   459.05226   459.05226    90.00000    90.00000    90.00000  Step:          40  Bead:       0 x_centroid{angstrom}  cell{atomic_unit}
       C -2.77034e-01 -8.49142e-02  8.57243e-02
       O  8.12880e-01  2.29573e-01 -2.04213e-01
       H -3.01430e-01  9.98697e-01 -3.59356e-01
       H -4.77836e-01 -9.65404e-01  7.57943e-01
       L  8.49628e+01 -1.98702e-01  2.64691e+00
       L -6.80853e-01  1.42676e+01  1.62220e+00
6
# CELL(abcABC):  459.05226   459.05226   459.05226    90.00000    90.00000    90.00000  Step:          41  Bead:       0 x_centroid{angstrom}  cell{atomic_unit}
       C -2.74854e-01 -8.43816e-02  8.29883e-02
       O  8.12118e-01  2.27648e-01 -2.03952e-01
       H -3.24586e-01  1.02269e+00 -3.44037e-01
       H -4.69314e-01 -9.65254e-01  7.71066e-01
       L  8.66109e+01 -3.23575e-01  2.76095e+00
       L -9.56306e-01  1.45178e+01  1.54073e+00
6
# CELL(abcABC):  459.05226   459.05226   459.05226    90.00000    90.00000    90.00000  Step:          42  Bead:       0 x_centroid{angstrom}  cell{atomic_unit}
       C -2.72295e-01 -8.32714e-02  8.00542e-02
       O  8.11382e-01  2.25313e-01 -2.03685e-01
       H -3.52461e-01  1.04492e+00 -3.26119e-01
       H -4.61059e-01 -9.63707e-01  7.83874e-01
       L  8.83832e+01 -4.89018e-01  2.80834e+00
       L -1.24183e+00  1.47730e+01  1.46436e+00
6
# CELL(abcABC):  459.05226   459.05226   459.05226    90.00000    90.00000    90.00000  Step:          43  Bead:       0 x_centroid{angstrom}  cell{atomic_unit}
       C -2.69465e-01 -8.15092e-02  7.66898e-02
       O  8.10691e-01  2.22563e-01 -2.03269e-01
       H -3.85931e-01  1.06544e+00 -3.06359e-01
       H -4.51225e-01 -9.61646e-01  7.97628e-01
       L  9.02567e+01 -6.01320e-01  2.85001e+00
       L -1.46499e+00  1.50180e+01  1.38799e+00
6
# CELL(abcABC):  459.05226   459.05226   459.05226    90.00000    90.00000    90.00000  Step:          44  Bead:       0 x_centroid{angstrom}  cell{atomic_unit}
       C -2.66036e-01 -7.90474e-02  7.29554e-02
       O  8.09916e-01  2.19321e-01 -2.02817e-01
       H -4.26070e-01  1.08398e+00 -2.82924e-01
       H -4.40633e-01 -9.58133e-01  8.11586e-01
       L  9.22957e+01 -7.51265e-01  2.88887e+00
       L -1.70961e+00  1.53152e+01  1.23187e+00
6
# CELL(abcABC):  459.05226   459.05226   459.05226    90.00000    90.00000    90.00000  Step:          45  Bead:       0 x_centroid{angstrom}  cell{atomic_unit}
       C -2.62179e-01 -7.59855e-02  6.91111e-02
       O  8.09220e-01  2.15637e-01 -2.02455e-01
       H -4.72310e-01  1.09999e+00 -2.56227e-01
       H -4.30343e-01 -9.52204e-01  8.25079e-01
       L  9.44369e+01 -9.44769e-01  2.83757e+00
       L -1.93637e+00  1.55969e+01  1.04502e+00
6
# CELL(abcABC):  459.05226   459.05226   459.05226    90.00000    90.00000    90.00000  Step:          46  Bead:       0 x_centroid{angstrom}  cell{atomic_unit}
       C -2.58213e-01 -7.21459e-02  6.55068e-02
       O  8.08765e-01  2.11520e-01 -2.02338e-01
       H -5.23030e-01  1.11145e+00 -2.27013e-01
       H -4.20783e-01 -9.44166e-01  8.37058e-01
       L  9.66641e+01 -1.06695e+00  2.79584e+00
       L -2.08023e+00  1.59103e+01  8.94952e-01
6
# CELL(abcABC):  459.05226   459.05226   459.05226    90.00000    90.00000    90.00000  Step:          47  Bead:       0 x_centroid{angstrom}  cell{atomic_unit}
       C -2.54237e-01 -6.72483e-02  6.21791e-02
       O  8.08752e-01  2.06946e-01 -2.02551e-01
       H -5.80334e-01  1.11643e+00 -1.94848e-01
       H -4.11860e-01 -9.34998e-01  8.48039e-01
       L  9.89922e+01 -1.21652e+00  2.75252e+00
       L -2.21942e+00  1.62370e+01  7.21125e-01
6
# CELL(abcABC):  459.05226   459.05226   459.05226    90.00000    90.00000    90.00000  Step:          48  Bead:       0 x_centroid{angstrom}  cell{atomic_unit}
       C -2.50784e-01 -6.06224e-02  5.87697e-02
       O  8.09497e-01  2.01548e-01 -2.02951e-01
       H -6.42140e-01  1.11281e+00 -1.58879e-01
       H -4.04219e-01 -9.24789e-01  8.59203e-01
       L  1.01328e+02 -1.30233e+00  2.66834e+00
       L -2.32946e+00  1.65924e+01  5.33909e-01
6
# CELL(abcABC):  459.05226   459.05226   459.05226    90.00000    90.00000    90.00000  Step:          49  Bead:       0 x_centroid{angstrom}  cell{atomic_unit}
       C -2.48298e-01 -5.29358e-02  5.57062e-02
       O  8.11448e-01  1.95864e-01 -2.03663e-01
       H -7.09100e-01  1.09872e+00 -1.21735e-01
       H -3.99116e-01 -9.12292e-01  8.70068e-01
       L  1.03705e+02 -1.31668e+00  2.53951e+00
       L -2.41504e+00  1.69859e+01  2.91392e-01
6
# CELL(abcABC):  459.05226   459.05226   459.05226    90.00000    90.00000    90.00000  Step:          50  Bead:       0 x_centroid{angstrom}  cell{atomic_unit}
       C -2.47255e-01 -4.38850e-02  5.31479e-02
       O  8.14619e-01  1.89747e-01 -2.04654e-01
       H -7.78183e-01  1.07402e+00 -8.40878e-02
       H -3.94078e-01 -8.98575e-01  8.78855e-01
       L  1.06069e+02 -1.32463e+00  2.35457e+00
       L -2.39790e+00  1.74294e+01  8.20180e-02
6
# CELL(abcABC):  459.05226   459.05226   459.05226    90.00000    90.00000    90.00000  Step:          51  Bead:       0 x_centroid{angstrom}  cell{atomic_unit}
       C -2.47472e-01 -3.38349e-02  5.12658e-02
       O  8.19029e-01  1.83376e-01 -2.06066e-01
       H -8.48669e-01  1.03950e+00 -4.46253e-02
       H -3.92287e-01 -8.82937e-01  8.84421e-01
       L  1.08447e+02 -1.32168e+00  2.19193e+00
       L -2.43561e+00  1.78897e+01 -1.04919e-01
6
# CELL(abcABC):  459.05226   459.05226   459.05226    90.00000    90.00000    90.00000  Step:          52  Bead:       0 x_centroid{angstrom}  cell{atomic_unit}
       C -2.48833e-01 -2.31437e-02  5.02402e-02
       O  8.24501e-01  1.76966e-01 -2.07934e-01
       H -9.19554e-01  9.95684e-01 -4.29664e-03
       H -3.93338e-01 -8.65042e-01  8.86138e-01
       L  1.10822e+02 -1.31917e+00  2.03969e+00
       L -2.45718e+00  1.83781e+01 -2.79069e-01
6
# CELL(abcABC):  459.05226   459.05226   459.05226    90.00000    90.00000    90.00000  Step:          53  Bead:       0 x_centroid{angstrom}  cell{atomic_unit}
       C -2.51133e-01 -1.18146e-02  5.03053e-02
       O  8.30796e-01  1.70399e-01 -2.10198e-01
       H -9.89692e-01  9.45326e-01  3.50037e-02
       H -3.96990e-01 -8.45701e-01  8.82181e-01
       L  1.13219e+02 -1.29868e+00  1.89282e+00
       L -2.48476e+00  1.88501e+01 -4.57762e-01
6
# CELL(abcABC):  459.05226   459.05226   459.05226    90.00000    90.00000    90.00000  Step:          54  Bead:       0 x_centroid{angstrom}  cell{atomic_unit}
       C -2.53803e-01 -4.72725e-04  5.11720e-02
       O  8.37519e-01  1.63917e-01 -2.12651e-01
       H -1.05955e+00  8.89790e-01  7.32513e-02
       H -4.03349e-01 -8.22626e-01  8.72679e-01
       L  1.15644e+02 -1.33483e+00  1.72566e+00
       L -2.50130e+00  1.92378e+01 -5.59401e-01
6
# CELL(abcABC):  459.05226   459.05226   459.05226    90.00000    90.00000    90.00000  Step:          55  Bead:       0 x_centroid{angstrom}  cell{atomic_unit}
       C -2.56194e-01  1.03046e-02  5.31257e-02
       O  8.44101e-01  1.57694e-01 -2.15368e-01
       H -1.12749e+00  8.33338e-01  1.09107e-01
       H -4.12759e-01 -7.95942e-01  8.56847e-01
       L  1.18143e+02 -1.44116e+00  1.51464e+00
       L -2.50073e+00  1.95757e+01 -6.61694e-01
6
# CELL(abcABC):  459.05226   459.05226   459.05226    90.00000    90.00000    90.00000  Step:          56  Bead:       0 x_centroid{angstrom}  cell{atomic_unit}
       C -2.57767e-01  1.98369e-02  5.63511e-02
       O  8.50188e-01  1.52121e-01 -2.18436e-01
       H -1.19459e+00  7.78280e-01  1.41493e-01
       H -4.24934e-01 -7.66080e-01  8.34896e-01
       L  1.20708e+02 -1.51446e+00  1.24507e+00
       L -2.48319e+00  1.97863e+01 -7.14466e-01
6
# CELL(abcABC):  459.05226   459.05226   459.05226    90.00000    90.00000    90.00000  Step:          57  Bead:       0 x_centroid{angstrom}  cell{atomic_unit}
       C -2.58148e-01  2.82085e-02  6.04926e-02
       O  8.55305e-01  1.47196e-01 -2.21672e-01
       H -1.25980e+00  7.25560e-01  1.69933e-01
       H -4.37885e-01 -7.34963e-01  8.08633e-01
       L  1.23401e+02 -1.60232e+00  9.84518e-01
       L -2.45977e+00  1.99074e+01 -7.42476e-01
6
# CELL(abcABC):  459.05226   459.05226   459.05226    90.00000    90.00000    90.00000  Step:          58  Bead:       0 x_centroid{angstrom}  cell{atomic_unit}
       C -2.57480e-01  3.56760e-02  6.52136e-02
       O  8.59475e-01  1.42783e-01 -2.24951e-01
       H -1.32241e+00  6.77292e-01  1.95014e-01
       H -4.50955e-01 -7.05619e-01  7.79515e-01
       L  1.26163e+02 -1.68210e+00  7.02536e-01
       L -2.42856e+00  1.99834e+01 -7.70655e-01
6
# CELL(abcABC):  459.05226   459.05226   459.05226    90.00000    90.00000    90.00000  Step:          59  Bead:       0 x_centroid{angstrom}  cell{atomic_unit}
       C -2.55801e-01  4.25226e-02  7.04730e-02
       O  8.62741e-01  1.38976e-01 -2.28342e-01
       H -1.38089e+00  6.32112e-01  2.15543e-01
       H -4.65918e-01 -6.81576e-01  7.50325e-01
       L  1.29007e+02 -1.74246e+00  4.02245e-01
       L -2.35779e+00  2.00176e+01 -8.12109e-01
6
# CELL(abcABC):  459.05226   459.05226   459.05226    90.00000    90.00000    90.00000  Step:          60  Bead:       0 x_centroid{angstrom}  cell{atomic_unit}
       C -2.53863e-01  4.89630e-02  7.60009e-02
       O  8.65413e-01  1.35729e-01 -2.31987e-01
       H -1.43150e+00  5.90928e-01  2.30600e-01
       H -4.82426e-01 -6.65632e-01  7.27445e-01
       L  1.31885e+02 -1.73105e+00  1.02584e-01
       L -2.26231e+00  2.00573e+01 -8.69690e-01
6
# CELL(abcABC):  459.05226   459.05226   459.05226    90.00000    90.00000    90.00000  Step:          61  Bead:       0 x_centroid{angstrom}  cell{atomic_unit}
       C -2.52028e-01  5.57322e-02  8.20433e-02
       O  8.67709e-01  1.32629e-01 -2.36099e-01
       H -1.47272e+00  5.53029e-01  2.39243e-01
       H -5.01157e-01 -6.59263e-01  7.12284e-01
       L  1.34793e+02 -1.69032e+00 -2.31158e-01
       L -2.14623e+00  2.01464e+01 -9.10593e-01
6
# CELL(abcABC):  459.05226   459.05226   459.05226    90.00000    90.00000    90.00000  Step:          62  Bead:       0 x_centroid{angstrom}  cell{atomic_unit}
       C -2.51335e-01  6.32034e-02  8.82300e-02
       O  8.70271e-01  1.29621e-01 -2.40488e-01
       H -1.50280e+00  5.18337e-01  2.42172e-01
       H -5.21664e-01 -6.65909e-01  7.05492e-01
       L  1.37684e+02 -1.69123e+00 -5.45051e-01
       L -2.01250e+00  2.02640e+01 -9.37073e-01
6
# CELL(abcABC):  459.05226   459.05226   459.05226    90.00000    90.00000    90.00000  Step:          63  Bead:       0 x_centroid{angstrom}  cell{atomic_unit}
       C -2.51872e-01  7.15166e-02  9.47857e-02
       O  8.73185e-01  1.26499e-01 -2.45257e-01
       H -1.52131e+00  4.86562e-01  2.39339e-01
       H -5.44648e-01 -6.83688e-01  7.06075e-01
       L  1.40528e+02 -1.69246e+00 -8.57071e-01
       L -1.83468e+00  2.03709e+01 -9.49781e-01
6
# CELL(abcABC):  459.05226   459.05226   459.05226    90.00000    90.00000    90.00000  Step:          64  Bead:       0 x_centroid{angstrom}  cell{atomic_unit}
       C -2.53431e-01  7.99524e-02  1.01692e-01
       O  8.76153e-01  1.23605e-01 -2.50083e-01
       H -1.52887e+00  4.58909e-01  2.29557e-01
       H -5.67262e-01 -7.10705e-01  7.10374e-01
       L  1.43349e+02 -1.67999e+00 -1.16654e+00
       L -1.64318e+00  2.05047e+01 -1.00151e+00
6
# CELL(abcABC):  459.05226   459.05226   459.05226    90.00000    90.00000    90.00000  Step:          65  Bead:       0 x_centroid{angstrom}  cell{atomic_unit}
       C -2.55322e-01  8.76801e-02  1.09135e-01
       O  8.78723e-01  1.21215e-01 -2.55205e-01
       H -1.52815e+00  4.35888e-01  2.15033e-01
       H -5.87889e-01 -7.41892e-01  7.17681e-01
       L  1.46160e+02 -1.67533e+00 -1.42382e+00
       L -1.41764e+00  2.06069e+01 -1.05487e+00
6
# CELL(abcABC):  459.05226   459.05226   459.05226    90.00000    90.00000    90.00000  Step:          66  Bead:       0 x_centroid{angstrom}  cell{atomic_unit}
       C -2.57227e-01  9.37149e-02  1.17243e-01