6
# CELL(abcABC):  459.05226   459.05226   459.05226    90.00000    90.00000    90.00000  Step:           0  Bead:       0 x_centroid{angstrom}  cell{atomic_unit}
       C -3.39887e-01 -1.13437e-01  8.06659e-02
       O  8.43483e-01  2.62672e-01 -1.81512e-01
       H -7.35799e-02  8.16467e-01 -6.61432e-01
       H -4.30016e-01 -9.65701e-01  7.62278e-01
       L  6.13458e+01  0.00000e+00  0.00000e+00
       L  0.00000e+00  8.59064e+00  0.00000e+00
6
# CELL(abcABC):  459.05226   459.05226   459.05226    90.00000    90.00000    90.00000  Step:           1  Bead:       0 x_centroid{angstrom}  cell{atomic_unit}
       C -3.42967e-01 -1.12570e-01  8.32679e-02
       O  8.44728e-01  2.62723e-01 -1.83097e-01
       H -5.84209e-02  8.06247e-01 -6.65335e-01
       H -4.28154e-01 -9.66545e-01  7.60393e-01
       L  6.13541e+01 -1.63870e-01  5.65364e-02
       L -1.68888e-01  8.60716e+00 -1.63159e-01
6
# CELL(abcABC):  459.05226   459.05226   459.05226    90.00000    90.00000    90.00000  Step:           2  Bead:       0 x_centroid{angstrom}  cell{atomic_unit}
       C -3.46076e-01 -1.11624e-01  8.56976e-02
       O  8.46349e-01  2.62711e-01 -1.84590e-01
       H -4.69738e-02  7.96156e-01 -6.70002e-01
       H -4.28188e-01 -9.67439e-01  7.59843e-01
       L  6.13375e+01 -3.34434e-01  1.40878e-01
       L -3.16959e-01  8.58524e+00 -3.31688e-01
6
# CELL(abcABC):  459.05226   459.05226   459.05226    90.00000    90.00000    90.00000  Step:           3  Bead:       0 x_centroid{angstrom}  cell{atomic_unit}
       C -3.49483e-01 -1.10776e-01  8.79646e-02
       O  8.48554e-01  2.62588e-01 -1.86004e-01
       H -3.93944e-02  7.88301e-01 -6.75093e-01
       H -4.30060e-01 -9.67601e-01  7.60351e-01
       L  6.12805e+01 -5.49588e-01  2.99202e-01
       L -4.52087e-01  8.56920e+00 -4.58081e-01
6
# CELL(abcABC):  459.05226   459.05226   459.05226    90.00000    90.00000    90.00000  Step:           4  Bead:       0 x_centroid{angstrom}  cell{atomic_unit}
       C -3.52972e-01 -1.10170e-01  9.02402e-02
       O  8.51243e-01  2.62329e-01 -1.87276e-01
       H -3.72136e-02  7.84123e-01 -6.82415e-01
       H -4.33242e-01 -9.66426e-01  7.60753e-01
       L  6.11983e+01 -7.26946e-01  4.29595e-01
       L -5.68758e-01  8.54153e+00 -5.85997e-01
6
# CELL(abcABC):  459.05226   459.05226   459.05226    90.00000    90.00000    90.00000  Step:           5  Bead:       0 x_centroid{angstrom}  cell{atomic_unit}
       C -3.56465e-01 -1.09860e-01  9.26317e-02
       O  8.54041e-01  2.61937e-01 -1.88690e-01
       H -3.82503e-02  7.85452e-01 -6.89517e-01
       H -4.34888e-01 -9.65106e-01  7.61793e-01
       L  6.11350e+01 -9.32857e-01  5.69068e-01
       L -7.10587e-01  8.51532e+00 -7.28311e-01
6
# CELL(abcABC):  459.05226   459.05226   459.05226    90.00000    90.00000    90.00000  Step:           6  Bead:       0 x_centroid{angstrom}  cell{atomic_unit}
       C -3.59778e-01 -1.09737e-01  9.48707e-02
       O  8.56676e-01  2.61427e-01 -1.89938e-01
       H -4.02175e-02  7.90302e-01 -6.97632e-01
       H -4.35114e-01 -9.63221e-01  7.63026e-01
       L  6.10460e+01 -1.14597e+00  7.28535e-01
       L -9.13317e-01  8.53723e+00 -8.60967e-01
6
# CELL(abcABC):  459.05226   459.05226   459.05226    90.00000    90.00000    90.00000  Step:           7  Bead:       0 x_centroid{angstrom}  cell{atomic_unit}
       C -3.63083e-01 -1.09727e-01  9.70875e-02
       O  8.59085e-01  2.60897e-01 -1.91095e-01
       H -3.99597e-02  7.97177e-01 -7.06934e-01
       H -4.34063e-01 -9.61705e-01  7.64228e-01
       L  6.09346e+01 -1.39828e+00  9.54049e-01
       L -1.09645e+00  8.61441e+00 -1.00031e+00
6
# CELL(abcABC):  459.05226   459.05226   459.05226    90.00000    90.00000    90.00000  Step:           8  Bead:       0 x_centroid{angstrom}  cell{atomic_unit}
       C -3.66081e-01 -1.09729e-01  9.93196e-02
       O  8.60960e-01  2.60297e-01 -1.92418e-01
       H -3.63105e-02  8.06338e-01 -7.16997e-01
       H -4.31613e-01 -9.61269e-01  7.68606e-01
       L  6.08599e+01 -1.65217e+00  1.21617e+00
       L -1.29401e+00  8.76343e+00 -1.08947e+00
6
# CELL(abcABC):  459.05226   459.05226   459.05226    90.00000    90.00000    90.00000  Step:           9  Bead:       0 x_centroid{angstrom}  cell{atomic_unit}
       C -3.69000e-01 -1.09241e-01  1.01430e-01
       O  8.62498e-01  2.59353e-01 -1.93712e-01
       H -2.95116e-02  8.15218e-01 -7.27291e-01
       H -4.27908e-01 -9.60949e-01  7.74203e-01
       L  6.07842e+01 -1.84114e+00  1.44410e+00
       L -1.44454e+00  8.92095e+00 -1.15619e+00
6
# CELL(abcABC):  459.05226   459.05226   459.05226    90.00000    90.00000    90.00000  Step:          10  Bead:       0 x_centroid{angstrom}  cell{atomic_unit}
       C -3.71503e-01 -1.08695e-01  1.03428e-01
       O  8.63557e-01  2.58469e-01 -1.95003e-01
       H -1.99861e-02  8.22963e-01 -7.36560e-01
       H -4.24326e-01 -9.61139e-01  7.80061e-01
       L  6.07269e+01 -1.99724e+00  1.63570e+00
       L -1.54122e+00  9.01966e+00 -1.18518e+00
6
# CELL(abcABC):  459.05226   459.05226   459.05226    90.00000    90.00000    90.00000  Step:          11  Bead:       0 x_centroid{angstrom}  cell{atomic_unit}
       C -3.74069e-01 -1.08191e-01  1.05502e-01
       O  8.64693e-01  2.57881e-01 -1.96453e-01
       H -9.76612e-03  8.27015e-01 -7.44039e-01
       H -4.21943e-01 -9.61844e-01  7.85761e-01
       L  6.06902e+01 -2.10766e+00  1.78940e+00
       L -1.62203e+00  9.08632e+00 -1.19818e+00
6
# CELL(abcABC):  459.05226   459.05226   459.05226    90.00000    90.00000    90.00000  Step:          12  Bead:       0 x_centroid{angstrom}  cell{atomic_unit}
       C -3.76955e-01 -1.07834e-01  1.07860e-01
       O  8.66264e-01  2.57627e-01 -1.98155e-01
       H -5.76415e-04  8.27246e-01 -7.48216e-01
       H -4.21566e-01 -9.62234e-01  7.88790e-01
       L  6.06096e+01 -2.26423e+00  1.91342e+00
       L -1.76591e+00  9.11899e+00 -1.18849e+00
6
# CELL(abcABC):  459.05226   459.05226   459.05226    90.00000    90.00000    90.00000  Step:          13  Bead:       0 x_centroid{angstrom}  cell{atomic_unit}
       C -3.79955e-01 -1.07625e-01  1.10357e-01
       O  8.68273e-01  2.57695e-01 -2.00150e-01
       H  4.47286e-03  8.23612e-01 -7.48262e-01
       H -4.22562e-01 -9.62072e-01  7.90667e-01
       L  6.04417e+01 -2.42175e+00  2.06676e+00
       L -1.94521e+00  9.11191e+00 -1.20544e+00
6
# CELL(abcABC):  459.05226   459.05226   459.05226    90.00000    90.00000    90.00000  Step:          14  Bead:       0 x_centroid{angstrom}  cell{atomic_unit}
       C -3.82618e-01 -1.07818e-01  1.12990e-01
       O  8.70342e-01  2.58164e-01 -2.02327e-01
       H  7.06706e-03  8.16284e-01 -7.45963e-01
       H -4.26036e-01 -9.59764e-01  7.91492e-01
       L  6.02457e+01 -2.57456e+00  2.19911e+00
       L -2.16766e+00  9.02298e+00 -1.20383e+00
6
# CELL(abcABC):  459.05226   459.05226   459.05226    90.00000    90.00000    90.00000  Step:          15  Bead:       0 x_centroid{angstrom}  cell{atomic_unit}
       C -3.85272e-01 -1.08031e-01  1.15774e-01
       O  8.72527e-01  2.58769e-01 -2.04698e-01
       H  8.47578e-03  8.06925e-01 -7.41784e-01
       H -4.30226e-01 -9.57326e-01  7.91705e-01
       L  5.99742e+01 -2.73897e+00  2.31764e+00
       L -2.39503e+00  8.92209e+00 -1.19841e+00
6
# CELL(abcABC):  459.05226   459.05226   459.05226    90.00000    90.00000    90.00000  Step:          16  Bead:       0 x_centroid{angstrom}  cell{atomic_unit}
       C -3.87674e-01 -1.08361e-01  1.18576e-01
       O  8.74447e-01  2.59437e-01 -2.07278e-01
       H  1.07116e-02  7.97053e-01 -7.36047e-01
       H -4.34055e-01 -9.54016e-01  7.93461e-01
       L  5.96847e+01 -2.89077e+00  2.42465e+00
       L -2.58354e+00  8.87080e+00 -1.18386e+00
6
# CELL(abcABC):  459.05226   459.05226   459.05226    90.00000    90.00000    90.00000  Step:          17  Bead:       0 x_centroid{angstrom}  cell{atomic_unit}
       C -3.90217e-01 -1.08750e-01  1.21108e-01
       O  8.76147e-01  2.60067e-01 -2.09939e-01
       H  1.68048e-02  7.88787e-01 -7.28980e-01
       H -4.36542e-01 -9.51041e-01  7.98414e-01
       L  5.93275e+01 -3.03883e+00  2.51960e+00
       L -2.77595e+00  8.90180e+00 -1.18329e+00
6
# CELL(abcABC):  459.05226   459.05226   459.05226    90.00000    90.00000    90.00000  Step:          18  Bead:       0 x_centroid{angstrom}  cell{atomic_unit}
       C -3.92311e-01 -1.09015e-01  1.23253e-01
       O  8.77263e-01  2.60399e-01 -2.12418e-01
       H  2.79061e-02  7.84974e-01 -7.22461e-01
       H -4.40107e-01 -9.49295e-01  8.05656e-01
       L  5.89691e+01 -3.19318e+00  2.55291e+00
       L -2.96697e+00  8.98179e+00 -1.17615e+00
6
# CELL(abcABC):  459.05226   459.05226   459.05226    90.00000    90.00000    90.00000  Step:          19  Bead:       0 x_centroid{angstrom}  cell{atomic_unit}
       C -3.93979e-01 -1.09122e-01  1.25031e-01
       O  8.77662e-01  2.60384e-01 -2.14733e-01
       H  4.32433e-02  7.85298e-01 -7.16649e-01
       H -4.41595e-01 -9.48109e-01  8.15404e-01
       L  5.85819e+01 -3.33015e+00  2.60503e+00
       L -3.14962e+00  9.12444e+00 -1.22093e+00
6
# CELL(abcABC):  459.05226   459.05226   459.05226    90.00000    90.00000    90.00000  Step:          20  Bead:       0 x_centroid{angstrom}  cell{atomic_unit}
       C -3.95631e-01 -1.09100e-01  1.26751e-01
       O  8.77998e-01  2.60010e-01 -2.17010e-01
       H  5.98480e-02  7.89969e-01 -7.11591e-01
       H -4.43480e-01 -9.47165e-01  8.26008e-01
       L  5.80972e+01 -3.45104e+00  2.59773e+00
       L -3.31750e+00  9.32571e+00 -1.24350e+00
6
# CELL(abcABC):  459.05226   459.05226   459.05226    90.00000    90.00000    90.00000  Step:          21  Bead:       0 x_centroid{angstrom}  cell{atomic_unit}
       C -3.97482e-01 -1.09387e-01  1.28212e-01
       O  8.78577e-01  2.59701e-01 -2.19027e-01
       H  7.63498e-02  7.96319e-01 -7.07711e-01
       H -4.46738e-01 -9.45301e-01  8.36746e-01
       L  5.75021e+01 -3.51248e+00  2.57505e+00
       L -3.41666e+00  9.59641e+00 -1.25503e+00
6
# CELL(abcABC):  459.05226   459.05226   459.05226    90.00000    90.00000    90.00000  Step:          22  Bead:       0 x_centroid{angstrom}  cell{atomic_unit}
       C -3.99627e-01 -1.09845e-01  1.29645e-01
       O  8.79377e-01  2.59283e-01 -2.20961e-01
       H  9.25563e-02  8.05353e-01 -7.04459e-01
       H -4.49706e-01 -9.42375e-01  8.47137e-01
       L  5.68295e+01 -3.52580e+00  2.50480e+00
       L -3.46771e+00  9.87287e+00 -1.20907e+00
6
# CELL(abcABC):  459.05226   459.05226   459.05226    90.00000    90.00000    90.00000  Step:          23  Bead:       0 x_centroid{angstrom}  cell{atomic_unit}
       C -4.02394e-01 -1.10448e-01  1.31287e-01
       O  8.80905e-01  2.58897e-01 -2.23074e-01
       H  1.06807e-01  8.14443e-01 -7.00115e-01
       H -4.54762e-01 -9.38330e-01  8.56791e-01
       L  5.60548e+01 -3.50476e+00  2.44389e+00
       L -3.55141e+00  1.01519e+01 -1.19310e+00
6
# CELL(abcABC):  459.05226   459.05226   459.05226    90.00000    90.00000    90.00000  Step:          24  Bead:       0 x_centroid{angstrom}  cell{atomic_unit}
       C -4.05843e-01 -1.11266e-01  1.33093e-01
       O  8.83177e-01  2.58622e-01 -2.25150e-01
       H  1.18024e-01  8.22041e-01 -6.95749e-01
       H -4.60423e-01 -9.31999e-01  8.63931e-01
       L  5.51670e+01 -3.44223e+00  2.35402e+00
       L -3.62286e+00  1.04429e+01 -1.23842e+00
6
# CELL(abcABC):  459.05226   459.05226   459.05226    90.00000    90.00000    90.00000  Step:          25  Bead:       0 x_centroid{angstrom}  cell{atomic_unit}
       C -4.09792e-01 -1.12474e-01  1.35114e-01
       O  8.85990e-01  2.58549e-01 -2.27207e-01
       H  1.27107e-01  8.29864e-01 -6.91950e-01
       H -4.66498e-01 -9.24453e-01  8.68797e-01
       L  5.41552e+01 -3.37664e+00  2.18611e+00
       L -3.70400e+00  1.07011e+01 -1.24463e+00
6
# CELL(abcABC):  459.05226   459.05226   459.05226    90.00000    90.00000    90.00000  Step:          26  Bead:       0 x_centroid{angstrom}  cell{atomic_unit}
       C -4.14293e-01 -1.13698e-01  1.37498e-01
       O  8.89231e-01  2.58503e-01 -2.29399e-01
       H  1.36954e-01  8.36730e-01 -6.88219e-01
       H -4.73546e-01 -9.16180e-01  8.71565e-01
       L  5.30649e+01 -3.30787e+00  2.00057e+00
       L -3.75418e+00  1.09829e+01 -1.27507e+00
6
# CELL(abcABC):  459.05226   459.05226   459.05226    90.00000    90.00000    90.00000  Step:          27  Bead:       0 x_centroid{angstrom}  cell{atomic_unit}
       C -4.18904e-01 -1.14978e-01  1.40124e-01
       O  8.92515e-01  2.58663e-01 -2.31590e-01
       H  1.47932e-01  8.41571e-01 -6.86570e-01
       H -4.81078e-01 -9.08504e-01  8.73477e-01
       L  5.19133e+01 -3.25437e+00  1.83502e+00
       L -3.75639e+00  1.12627e+01 -1.21107e+00
6
# CELL(abcABC):  459.05226   459.05226   459.05226    90.00000    90.00000    90.00000  Step:          28  Bead:       0 x_centroid{angstrom}  cell{atomic_unit}
       C -4.23821e-01 -1.16557e-01  1.42903e-01
       O  8.95712e-01  2.59089e-01 -2.33888e-01
       H  1.62483e-01  8.46146e-01 -6.84519e-01
       H -4.87150e-01 -9.01216e-01  8.74859e-01
       L  5.06784e+01 -3.17389e+00  1.63952e+00
       L -3.69163e+00  1.15565e+01 -1.16151e+00
6
# CELL(abcABC):  459.05226   459.05226   459.05226    90.00000    90.00000    90.00000  Step:          29  Bead:       0 x_centroid{angstrom}  cell{atomic_unit}
       C -4.28589e-01 -1.18209e-01  1.45839e-01
       O  8.98414e-01  2.59801e-01 -2.36389e-01
       H  1.82869e-01  8.48349e-01 -6.82436e-01
       H -4.92951e-01 -8.95265e-01  8.77571e-01
       L  4.94114e+01 -3.04958e+00  1.38808e+00
       L -3.61659e+00  1.18562e+01 -1.05962e+00
6
# CELL(abcABC):  459.05226   459.05226   459.05226    90.00000    90.00000    90.00000  Step:          30  Bead:       0 x_centroid{angstrom}  cell{atomic_unit}
       C -4.33267e-01 -1.19984e-01  1.48819e-01
       O  9.00523e-01  2.60779e-01 -2.38890e-01
       H  2.10953e-01  8.50765e-01 -6.81880e-01
       H -4.98113e-01 -8.92327e-01  8.81282e-01
       L  4.80948e+01 -2.90577e+00  1.15663e+00
       L -3.52410e+00  1.21802e+01 -9.64726e-01
6
# CELL(abcABC):  459.05226   459.05226   459.05226    90.00000    90.00000    90.00000  Step:          31  Bead:       0 x_centroid{angstrom}  cell{atomic_unit}
       C -4.37840e-01 -1.21640e-01  1.51712e-01
       O  9.02121e-01  2.61746e-01 -2.41195e-01
       H  2.44881e-01  8.53685e-01 -6.83234e-01
       H -5.02236e-01 -8.91086e-01  8.84851e-01
       L  4.67485e+01 -2.75653e+00  9.20748e-01
       L -3.41439e+00  1.24682e+01 -9.09118e-01
6
# CELL(abcABC):  459.05226   459.05226   459.05226    90.00000    90.00000    90.00000  Step:          32  Bead:       0 x_centroid{angstrom}  cell{atomic_unit}
       C -4.42331e-01 -1.23264e-01  1.55006e-01
       O  9.03285e-01  2.62765e-01 -2.43697e-01
       H  2.83611e-01  8.58145e-01 -6.87943e-01
       H -5.05243e-01 -8.92625e-01  8.90118e-01
       L  4.53482e+01 -2.54548e+00  7.01536e-01
       L -3.28144e+00  1.27118e+01 -8.86294e-01
6
# CELL(abcABC):  459.05226   459.05226   459.05226    90.00000    90.00000    90.00000  Step:          33  Bead:       0 x_centroid{angstrom}  cell{atomic_unit}
       C -4.47067e-01 -1.24428e-01  1.58442e-01
       O  9.04293e-01  2.63430e-01 -2.46102e-01
       H  3.25625e-01  8.64288e-01 -6.95423e-01
       H -5.06138e-01 -8.95749e-01  8.94945e-01
       L  4.39196e+01 -2.24761e+00  4.54479e-01
       L -3.08768e+00  1.29513e+01 -8.39382e-01
6
# CELL(abcABC):  459.05226   459.05226   459.05226    90.00000    90.00000    90.00000  Step:          34  Bead:       0 x_centroid{angstrom}  cell{atomic_unit}
       C -4.51764e-01 -1.25618e-01  1.61794e-01
       O  9.05184e-01  2.64206e-01 -2.48285e-01
       H  3.68105e-01  8.71868e-01 -7.06297e-01
       H -5.06122e-01 -9.01740e-01  9.00622e-01
       L  4.24301e+01 -1.93273e+00  2.67891e-01
       L -2.84469e+00  1.31673e+01 -8.13993e-01
6
# CELL(abcABC):  459.05226   459.05226   459.05226    90.00000    90.00000    90.00000  Step:          35  Bead:       0 x_centroid{angstrom}  cell{atomic_unit}
       C -4.57013e-01 -1.26857e-01  1.65594e-01
       O  9.06333e-01  2.64859e-01 -2.50528e-01
       H  4.11108e-01  8.83043e-01 -7.20408e-01
       H -5.04104e-01 -9.08798e-01  9.05159e-01
       L  4.08709e+01 -1.62227e+00  4.27605e-02
       L -2.58702e+00  1.33567e+01 -7.99074e-01
6
# CELL(abcABC):  459.05226   459.05226   459.05226    90.00000    90.00000    90.00000  Step:          36  Bead:       0 x_centroid{angstrom}  cell{atomic_unit}
       C -4.62558e-01 -1.28047e-01  1.69296e-01
       O  9.07782e-01  2.65501e-01 -2.52410e-01
       H  4.51598e-01  8.95627e-01 -7.38323e-01
       H -5.00770e-01 -9.17672e-01  9.09009e-01
       L  3.92310e+01 -1.26869e+00 -2.52191e-01
       L -2.33155e+00  1.35372e+01 -8.23353e-01
6
# CELL(abcABC):  459.05226   459.05226   459.05226    90.00000    90.00000    90.00000  Step:          37  Bead:       0 x_centroid{angstrom}  cell{atomic_unit}
       C -4.68995e-01 -1.29102e-01  1.73018e-01
       O  9.09815e-01  2.65995e-01 -2.53995e-01
       H  4.92329e-01  9.10913e-01 -7.58320e-01
       H -4.96277e-01 -9.28532e-01  9.09951e-01
       L  3.75346e+01 -8.97685e-01 -5.24431e-01
       L -2.07622e+00  1.37034e+01 -8.01830e-01
6
# CELL(abcABC):  459.05226   459.05226   459.05226    90.00000    90.00000    90.00000  Step:          38  Bead:       0 x_centroid{angstrom}  cell{atomic_unit}
       C -4.75828e-01 -1.30281e-01  1.76840e-01
       O  9.12208e-01  2.66584e-01 -2.55381e-01
       H  5.31355e-01  9.26632e-01 -7.80373e-01
       H -4.91071e-01 -9.39801e-01  9.08629e-01
       L  3.57692e+01 -4.54169e-01 -8.39979e-01
       L -1.79712e+00  1.37172e+01 -7.98660e-01
6
# CELL(abcABC):  459.05226   459.05226   459.05226    90.00000    90.00000    90.00000  Step:          39  Bead:       0 x_centroid{angstrom}  cell{atomic_unit}
       C -4.83212e-01 -1.31499e-01  1.81160e-01
       O  9.15070e-01  2.67249e-01 -2.56839e-01
       H  5.68526e-01  9.41856e-01 -8.04003e-01
       H -4.84836e-01 -9.51343e-01  9.04051e-01
       L  3.39015e+01  4.79618e-02 -1.12042e+00
       L -1.47681e+00  1.37207e+01 -7.34560e-01
6
# CELL(abcABC):  459.05226   459.05226   459.05226    90.00000    90.00000    90.00000  Step:          40  Bead:       0 x_centroid{angstrom}  cell{atomic_unit}
       C -4.90779e-01 -1.32710e-01  1.85770e-01
       O  9.18214e-01  2.67990e-01 -2.58207e-01
       H  6.03063e-01  9.55091e-01 -8.29826e-01
       H -4.78236e-01 -9.62104e-01  8.96766e-01
       L  3.19894e+01  5.25418e-01 -1.37878e+00
       L -1.14846e+00  1.35909e+01 -6.65280e-01
6
# CELL(abcABC):  459.05226   459.05226   459.05226    90.00000    90.00000    90.00000  Step:          41  Bead:       0 x_centroid{angstrom}  cell{atomic_unit}
       C -4.98177e-01 -1.33723e-01  1.90072e-01
       O  9.21218e-01  2.68883e-01 -2.59209e-01
       H  6.36892e-01  9.63927e-01 -8.55677e-01
       H -4.70719e-01 -9.73135e-01  8.87354e-01
       L  3.00118e+01  9.42228e-01 -1.62760e+00
       L -7.85750e-01  1.33693e+01 -6.03824e-01
6
# CELL(abcABC):  459.05226   459.05226   459.05226    90.00000    90.00000    90.00000  Step:          42  Bead:       0 x_centroid{angstrom}  cell{atomic_unit}
       C -5.05330e-01 -1.34697e-01  1.94161e-01
       O  9.23915e-01  2.69981e-01 -2.60056e-01
       H  6.70819e-01  9.69570e-01 -8.78642e-01
       H -4.61316e-01 -9.84683e-01  8.75100e-01
       L  2.79579e+01  1.35919e+00 -1.81880e+00
       L -3.85363e-01  1.30869e+01 -5.22021e-01
6
# CELL(abcABC):  459.05226   459.05226   459.05226    90.00000    90.00000    90.00000  Step:          43  Bead:       0 x_centroid{angstrom}  cell{atomic_unit}
       C -5.11950e-01 -1.35249e-01  1.98151e-01
       O  9.26169e-01  2.71053e-01 -2.60790e-01
       H  7.03502e-01  9.69741e-01 -8.99725e-01
       H -4.49995e-01 -9.95312e-01  8.60357e-01
       L  2.59117e+01  1.74909e+00 -2.03762e+00
       L -1.05562e-02  1.27508e+01 -4.37250e-01
6
# CELL(abcABC):  459.05226   459.05226   459.05226    90.00000    90.00000    90.00000  Step:          44  Bead:       0 x_centroid{angstrom}  cell{atomic_unit}
       C -5.18158e-01 -1.35475e-01  2.02052e-01
       O  9.27911e-01  2.72177e-01 -2.61475e-01
       H  7.36566e-01  9.65296e-01 -9.18762e-01
       H -4.35839e-01 -1.00602e+00  8.43892e-01
       L  2.38377e+01  2.15680e+00 -2.25140e+00
       L  4.03506e-01  1.23351e+01 -4.12413e-01
6
# CELL(abcABC):  459.05226   459.05226   459.05226    90.00000    90.00000    90.00000  Step:          45  Bead:       0 x_centroid{angstrom}  cell{atomic_unit}
       C -5.23388e-01 -1.35193e-01  2.05478e-01
       O  9.28750e-01  2.73098e-01 -2.61957e-01
       H  7.69780e-01  9.58973e-01 -9.35023e-01
       H -4.19164e-01 -1.01761e+00  8.27063e-01
       L  2.18335e+01  2.48964e+00 -2.44613e+00
       L  7.97236e-01  1.19045e+01 -3.83829e-01
6
# CELL(abcABC):  459.05226   459.05226   459.05226    90.00000    90.00000    90.00000  Step:          46  Bead:       0 x_centroid{angstrom}  cell{atomic_unit}
       C -5.27684e-01 -1.34365e-01  2.08456e-01
       O  9.28777e-01  2.73580e-01 -2.62252e-01
       H  8.03360e-01  9.53026e-01 -9.49796e-01
       H -4.01069e-01 -1.02915e+00  8.11142e-01
       L  1.97941e+01  2.84049e+00 -2.67549e+00
       L  1.16725e+00  1.14641e+01 -3.60453e-01
6
# CELL(abcABC):  459.05226   459.05226   459.05226    90.00000    90.00000    90.00000  Step:          47  Bead:       0 x_centroid{angstrom}  cell{atomic_unit}
       C -5.31179e-01 -1.32781e-01  2.10815e-01
       O  9.27925e-01  2.73726e-01 -2.62294e-01
       H  8.37603e-01  9.44359e-01 -9.61116e-01
       H -3.79268e-01 -1.04166e+00  7.95148e-01
       L  1.77841e+01  3.22327e+00 -2.90184e+00
       L  1.58738e+00  1.10594e+01 -3.52225e-01
6
# CELL(abcABC):  459.05226   459.05226   459.05226    90.00000    90.00000    90.00000  Step:          48  Bead:       0 x_centroid{angstrom}  cell{atomic_unit}
       C -5.33548e-01 -1.30389e-01  2.12692e-01
       O  9.26063e-01  2.73308e-01 -2.62284e-01
       H  8.71196e-01  9.35019e-01 -9.68397e-01
       H -3.54191e-01 -1.05418e+00  7.79972e-01
       L  1.57686e+01  3.56511e+00 -3.06094e+00
       L  1.98110e+00  1.06836e+01 -3.43224e-01
6
# CELL(abcABC):  459.05226   459.05226   459.05226    90.00000    90.00000    90.00000  Step:          49  Bead:       0 x_centroid{angstrom}  cell{atomic_unit}
       C -5.34817e-01 -1.27258e-01  2.13822e-01
       O  9.23342e-01  2.72288e-01 -2.61961e-01
       H  9.02405e-01  9.27287e-01 -9.72217e-01
       H -3.26155e-01 -1.06746e+00  7.65215e-01
       L  1.37021e+01  3.81798e+00 -3.14382e+00
       L  2.31505e+00  1.02749e+01 -2.88060e-01
6
# CELL(abcABC):  459.05226   459.05226   459.05226    90.00000    90.00000    90.00000  Step:          50  Bead:       0 x_centroid{angstrom}  cell{atomic_unit}
       C -5.35096e-01 -1.23754e-01  2.14505e-01
       O  9.19965e-01  2.70974e-01 -2.61618e-01
       H  9.31436e-01  9.18690e-01 -9.73456e-01
       H -2.97328e-01 -1.07971e+00  7.52847e-01
       L  1.16284e+01  4.03781e+00 -3.20299e+00
       L  2.68118e+00  9.93706e+00 -1.73584e-01
6
# CELL(abcABC):  459.05226   459.05226   459.05226    90.00000    90.00000    90.00000  Step:          51  Bead:       0 x_centroid{angstrom}  cell{atomic_unit}
       C -5.34682e-01 -1.19742e-01  2.14684e-01
       O  9.16256e-01  2.69171e-01 -2.61206e-01
       H  9.55692e-01  9.11211e-01 -9.72505e-01
       H -2.66682e-01 -1.09136e+00  7.43192e-01
       L  9.55501e+00  4.22743e+00 -3.23331e+00
       L  2.98109e+00  9.66113e+00 -9.54023e-02
6
# CELL(abcABC):  459.05226   459.05226   459.05226    90.00000    90.00000    90.00000  Step:          52  Bead:       0 x_centroid{angstrom}  cell{atomic_unit}
       C -5.33653e-01 -1.15785e-01  2.14600e-01
       O  9.12306e-01  2.67220e-01 -2.60710e-01
       H  9.75618e-01  9.03438e-01 -9.69511e-01
       H -2.35149e-01 -1.09974e+00  7.33337e-01
       L  7.40193e+00  4.41433e+00 -3.28048e+00
       L  3.25805e+00  9.42562e+00 -7.24869e-02
6
# CELL(abcABC):  459.05226   459.05226   459.05226    90.00000    90.00000    90.00000  Step:          53  Bead:       0 x_centroid{angstrom}  cell{atomic_unit}
       C -5.32146e-01 -1.11633e-01  2.14360e-01
       O  9.08428e-01  2.64887e-01 -2.60135e-01
       H  9.90478e-01  8.96442e-01 -9.65218e-01
       H -2.05335e-01 -1.10517e+00  7.22788e-01
       L  5.21059e+00  4.58017e+00 -3.30733e+00
       L  3.45980e+00  9.21898e+00 -6.55890e-02
6
# CELL(abcABC):  459.05226   459.05226   459.05226    90.00000    90.00000    90.00000  Step:          54  Bead:       0 x_centroid{angstrom}  cell{atomic_unit}
       C -5.30338e-01 -1.07449e-01  2.14439e-01
       O  9.04972e-01  2.62208e-01 -2.59708e-01
       H  9.98260e-01  8.89786e-01 -9.61043e-01
       H -1.78649e-01 -1.10581e+00  7.10904e-01
       L  2.93628e+00  4.76116e+00 -3.31209e+00
       L  3.62781e+00  8.95714e+00 -6.27535e-02
6
# CELL(abcABC):  459.05226   459.05226   459.05226    90.00000    90.00000    90.00000  Step:          55  Bead:       0 x_centroid{angstrom}  cell{atomic_unit}
       C -5.28381e-01 -1.04041e-01  2.14797e-01
       O  9.02050e-01  2.59931e-01 -2.59278e-01
       H  1.00042e+00  8.81521e-01 -9.57499e-01
       H -1.56492e-01 -1.10192e+00  6.96240e-01
       L  5.64642e-01  4.89493e+00 -3.24837e+00
       L  3.71973e+00  8.65495e+00 -7.23887e-02
6
# CELL(abcABC):  459.05226   459.05226   459.05226    90.00000    90.00000    90.00000  Step:          56  Bead:       0 x_centroid{angstrom}  cell{atomic_unit}
       C -5.26138e-01 -1.00799e-01  2.15281e-01
       O  8.99501e-01  2.57493e-01 -2.58858e-01
       H  9.97277e-01  8.72241e-01 -9.53987e-01
       H -1.38337e-01 -1.09245e+00  6.80275e-01
       L -1.85848e+00  5.00309e+00 -3.19336e+00
       L  3.78162e+00  8.32549e+00 -9.52174e-02
6
# CELL(abcABC):  459.05226   459.05226   459.05226    90.00000    90.00000    90.00000  Step:          57  Bead:       0 x_centroid{angstrom}  cell{atomic_unit}
       C -5.23534e-01 -9.76710e-02  2.15873e-01
       O  8.97262e-01  2.54662e-01 -2.58238e-01
       H  9.89077e-01  8.64546e-01 -9.52942e-01
       H -1.24268e-01 -1.07695e+00  6.62308e-01
       L -4.35347e+00  5.07005e+00 -3.11800e+00
       L  3.78835e+00  7.99415e+00 -1.28012e-01
6
# CELL(abcABC):  459.05226   459.05226   459.05226    90.00000    90.00000    90.00000  Step:          58  Bead:       0 x_centroid{angstrom}  cell{atomic_unit}
       C -5.20250e-01 -9.48618e-02  2.16356e-01
       O  8.95273e-01  2.51778e-01 -2.57347e-01
       H  9.74618e-01  8.58792e-01 -9.53953e-01
       H -1.15980e-01 -1.05868e+00  6.43383e-01
       L -6.92620e+00  5.08514e+00 -3.03164e+00
       L  3.80175e+00  7.60138e+00 -1.26297e-01
6
# CELL(abcABC):  459.05226   459.05226   459.05226    90.00000    90.00000    90.00000  Step:          59  Bead:       0 x_centroid{angstrom}  cell{atomic_unit}
       C -5.15719e-01 -9.22096e-02  2.16715e-01
       O  8.92827e-01  2.48713e-01 -2.56257e-01
       H  9.55974e-01  8.56113e-01 -9.57380e-01
       H -1.11073e-01 -1.03873e+00  6.25144e-01
       L -9.47949e+00  5.07512e+00 -2.91774e+00
       L  3.73536e+00  7.20409e+00 -7.80767e-02
6
# CELL(abcABC):  459.05226   459.05226   459.05226    90.00000    90.00000    90.00000  Step:          60  Bead:       0 x_centroid{angstrom}  cell{atomic_unit}
       C -5.10368e-01 -8.94687e-02  2.16819e-01
       O  8.90220e-01  2.45356e-01 -2.54949e-01
       H  9.33997e-01  8.56979e-01 -9.61303e-01
       H -1.10038e-01 -1.01874e+00  6.06945e-01
       L -1.20709e+01  5.02703e+00 -2.75388e+00
       L  3.66429e+00  6.80570e+00 -3.30687e-02
6
# CELL(abcABC):  459.05226   459.05226   459.05226    90.00000    90.00000    90.00000  Step:          61  Bead:       0 x_centroid{angstrom}  cell{atomic_unit}
       C -5.04077e-01 -8.66685e-02  2.16501e-01
       O  8.87381e-01  2.41794e-01 -2.53369e-01
       H  9.09312e-01  8.61578e-01 -9.66196e-01
       H -1.13801e-01 -9.99873e-01  5.90435e-01
       L -1.46690e+01  4.91635e+00 -2.58077e+00
       L  3.58892e+00  6.38855e+00 -7.72742e-03
6
# CELL(abcABC):  459.05226   459.05226   459.05226    90.00000    90.00000    90.00000  Step:          62  Bead:       0 x_centroid{angstrom}  cell{atomic_unit}
       C -4.97035e-01 -8.34572e-02  2.15950e-01
       O  8.84054e-01  2.38023e-01 -2.51858e-01
       H  8.84243e-01  8.68756e-01 -9.70899e-01
       H -1.18367e-01 -9.85099e-01  5.77609e-01
       L -1.72690e+01  4.77890e+00 -2.43051e+00
       L  3.50942e+00  5.88495e+00  6.07305e-02
6
# CELL(abcABC):  459.05226   459.05226   459.05226    90.00000    90.00000    90.00000  Step:          63  Bead:       0 x_centroid{angstrom}  cell{atomic_unit}
       C -4.88669e-01 -7.97026e-02  2.15010e-01
       O  8.79773e-01  2.33994e-01 -2.50472e-01
       H  8.59660e-01  8.77737e-01 -9.73090e-01
       H -1.24077e-01 -9.74537e-01  5.68838e-01
       L -1.98337e+01  4.62215e+00 -2.22799e+00
       L  3.41102e+00  5.42546e+00  1.49317e-01
6
# CELL(abcABC):  459.05226   459.05226   459.05226    90.00000    90.00000    90.00000  Step:          64  Bead:       0 x_centroid{angstrom}  cell{atomic_unit}
       C -4.79077e-01 -7.52983e-02  2.13024e-01
       O  8.74605e-01  2.30028e-01 -2.48826e-01
       H  8.35647e-01  8.84591e-01 -9.72333e-01
       H -1.30894e-01 -9.70546e-01  5.65452e-01
       L -2.23278e+01  4.45751e+00 -2.02840e+00
       L  3.28422e+00  4.90147e+00  2.39010e-01
6
# CELL(abcABC):  459.05226   459.05226   459.05226    90.00000    90.00000    90.00000  Step:          65  Bead:       0 x_centroid{angstrom}  cell{atomic_unit}
       C -4.68445e-01 -7.02114e-02  2.10569e-01
       O  8.68649e-01  2.26068e-01 -2.47349e-01
       H  8.13016e-01  8.89684e-01 -9.67879e-01
       H -1.39031e-01 -9.72983e-01  5.66619e-01
       L -2.47643e+01  4.26912e+00 -1.79308e+00
       L  3.16171e+00  4.31939e+00  3.48990e-01
6
# CELL(abcABC):  459.05226   459.05226   459.05226    90.00000    90.00000    90.00000  Step:          66  Bead:       0 x_centroid{angstrom}  cell{atomic_unit}
       C -4.56855e-01 -6.45568e-02  2.07530e-01