6
# CELL(abcABC):  459.05226   459.05226   459.05226    90.00000    90.00000    90.00000  Step:           0  Bead:       0 x_centroid{angstrom}  cell{atomic_unit}
       C -3.39887e-01 -1.13437e-01  8.06659e-02
       O  8.43483e-01  2.62672e-01 -1.81512e-01
       H -7.35799e-02  8.16467e-01 -6.61432e-01
       H -4.30016e-01 -9.65701e-01  7.62278e-01
       L  6.13458e+01  0.00000e+00  0.00000e+00
       L  0.00000e+00  8.59064e+00  0.00000e+00
6
# CELL(abcABC):  459.05226   459.05226   459.05226    90.00000    90.00000    90.00000  Step:           1  Bead:       0 x_centroid{angstrom}  cell{atomic_unit}
       C -3.36654e-01 -1.13549e-01  8.37792e-02
       O  8.40831e-01  2.62297e-01 -1.85439e-01
       H -6.04488e-02  8.24158e-01 -6.55747e-01
       H -4.39251e-01 -9.66150e-01  7.81712e-01
       L  6.09234e+01 -1.98871e-02  2.52930e-02
       L -1.76108e-01  8.67574e+00  1.74197e-01
6
# CELL(abcABC):  459.05226   459.05226   459.05226    90.00000    90.00000    90.00000  Step:           2  Bead:       0 x_centroid{angstrom}  cell{atomic_unit}
       C -3.33933e-01 -1.13388e-01  8.69998e-02
       O  8.39123e-01  2.61711e-01 -1.89249e-01
       H -5.59226e-02  8.28996e-01 -6.49527e-01
       H -4.48678e-01 -9.63619e-01  7.97489e-01
       L  6.04087e+01 -1.77736e-02  2.94162e-02
       L -4.07628e-01  8.69404e+00  3.56932e-01
6
# CELL(abcABC):  459.05226   459.05226   459.05226    90.00000    90.00000    90.00000  Step:           3  Bead:       0 x_centroid{angstrom}  cell{atomic_unit}
       C -3.32219e-01 -1.13207e-01  9.04243e-02
       O  8.38842e-01  2.61147e-01 -1.93037e-01
       H -6.11120e-02  8.30769e-01 -6.41308e-01
       H -4.59007e-01 -9.58528e-01  8.08530e-01
       L  5.98368e+01 -9.51069e-02  4.90265e-03
       L -6.49401e-01  8.65813e+00  4.86186e-01
6
# CELL(abcABC):  459.05226   459.05226   459.05226    90.00000    90.00000    90.00000  Step:           4  Bead:       0 x_centroid{angstrom}  cell{atomic_unit}
       C -3.31019e-01 -1.13001e-01  9.42364e-02
       O  8.39555e-01  2.60725e-01 -1.96875e-01
       H -7.43920e-02  8.28550e-01 -6.33032e-01
       H -4.70896e-01 -9.51940e-01  8.15676e-01
       L  5.92235e+01 -2.17955e-01 -2.23087e-02
       L -8.72273e-01  8.55421e+00  6.59085e-01
6
# CELL(abcABC):  459.05226   459.05226   459.05226    90.00000    90.00000    90.00000  Step:           5  Bead:       0 x_centroid{angstrom}  cell{atomic_unit}
       C -3.30166e-01 -1.12868e-01  9.82684e-02
       O  8.40577e-01  2.60382e-01 -2.00739e-01
       H -8.87571e-02  8.24376e-01 -6.24600e-01
       H -4.82482e-01 -9.43737e-01  8.20445e-01
       L  5.86192e+01 -3.66714e-01 -5.79126e-02
       L -1.06842e+00  8.39470e+00  8.68468e-01
6
# CELL(abcABC):  459.05226   459.05226   459.05226    90.00000    90.00000    90.00000  Step:           6  Bead:       0 x_centroid{angstrom}  cell{atomic_unit}
       C -3.29281e-01 -1.12940e-01  1.02674e-01
       O  8.41094e-01  2.60251e-01 -2.04864e-01
       H -9.80259e-02  8.19251e-01 -6.16864e-01
       H -4.91547e-01 -9.35494e-01  8.25597e-01
       L  5.80435e+01 -4.84772e-01 -1.00392e-01
       L -1.24555e+00  8.17155e+00  1.07682e+00
6
# CELL(abcABC):  459.05226   459.05226   459.05226    90.00000    90.00000    90.00000  Step:           7  Bead:       0 x_centroid{angstrom}  cell{atomic_unit}
       C -3.28099e-01 -1.12690e-01  1.07133e-01
       O  8.40411e-01  2.59824e-01 -2.09021e-01
       H -9.56948e-02  8.16574e-01 -6.10812e-01
       H -4.96745e-01 -9.28871e-01  8.32319e-01
       L  5.75413e+01 -5.61726e-01 -1.73829e-01
       L -1.42231e+00  7.96893e+00  1.29786e+00
6
# CELL(abcABC):  459.05226   459.05226   459.05226    90.00000    90.00000    90.00000  Step:           8  Bead:       0 x_centroid{angstrom}  cell{atomic_unit}
       C -3.27047e-01 -1.12379e-01  1.11583e-01
       O  8.38822e-01  2.59291e-01 -2.13242e-01
       H -8.18464e-02  8.16026e-01 -6.06117e-01
       H -4.97623e-01 -9.23442e-01  8.41512e-01
       L  5.71449e+01 -6.68354e-01 -2.38186e-01
       L -1.57086e+00  7.86801e+00  1.52208e+00
6
# CELL(abcABC):  459.05226   459.05226   459.05226    90.00000    90.00000    90.00000  Step:           9  Bead:       0 x_centroid{angstrom}  cell{atomic_unit}
       C -3.26046e-01 -1.12390e-01  1.15817e-01
       O  8.36792e-01  2.58772e-01 -2.17166e-01
       H -6.33194e-02  8.18005e-01 -6.03839e-01
       H -4.95529e-01 -9.16935e-01  8.50937e-01
       L  5.67332e+01 -8.25765e-01 -2.26415e-01
       L -1.75039e+00  7.79638e+00  1.74726e+00
6
# CELL(abcABC):  459.05226   459.05226   459.05226    90.00000    90.00000    90.00000  Step:          10  Bead:       0 x_centroid{angstrom}  cell{atomic_unit}
       C -3.25723e-01 -1.12329e-01  1.20087e-01
       O  8.35270e-01  2.58180e-01 -2.21028e-01
       H -4.67736e-02  8.21092e-01 -6.02906e-01
       H -4.91442e-01 -9.11241e-01  8.60296e-01
       L  5.63009e+01 -9.54699e-01 -2.11449e-01
       L -1.93232e+00  7.72539e+00  1.95178e+00
6
# CELL(abcABC):  459.05226   459.05226   459.05226    90.00000    90.00000    90.00000  Step:          11  Bead:       0 x_centroid{angstrom}  cell{atomic_unit}
       C -3.26281e-01 -1.12506e-01  1.24540e-01
       O  8.35048e-01  2.57726e-01 -2.24819e-01
       H -4.03013e-02  8.24540e-01 -6.02727e-01
       H -4.87381e-01 -9.05274e-01  8.67087e-01
       L  5.58345e+01 -1.05874e+00 -1.82512e-01
       L -2.10491e+00  7.62940e+00  2.19323e+00
6
# CELL(abcABC):  459.05226   459.05226   459.05226    90.00000    90.00000    90.00000  Step:          12  Bead:       0 x_centroid{angstrom}  cell{atomic_unit}
       C -3.28003e-01 -1.12561e-01  1.29588e-01
       O  8.36372e-01  2.57226e-01 -2.28839e-01
       H -4.45130e-02  8.26532e-01 -6.02727e-01
       H -4.83296e-01 -8.98503e-01  8.70610e-01
       L  5.52720e+01 -1.16719e+00 -1.47252e-01
       L -2.24851e+00  7.44837e+00  2.41527e+00
6
# CELL(abcABC):  459.05226   459.05226   459.05226    90.00000    90.00000    90.00000  Step:          13  Bead:       0 x_centroid{angstrom}  cell{atomic_unit}
       C -3.30491e-01 -1.12527e-01  1.34626e-01
       O  8.38644e-01  2.56688e-01 -2.32730e-01
       H -5.59554e-02  8.27474e-01 -6.02997e-01
       H -4.77865e-01 -8.91185e-01  8.72487e-01
       L  5.46297e+01 -1.19917e+00 -1.37314e-01
       L -2.33624e+00  7.24564e+00  2.61548e+00
6
# CELL(abcABC):  459.05226   459.05226   459.05226    90.00000    90.00000    90.00000  Step:          14  Bead:       0 x_centroid{angstrom}  cell{atomic_unit}
       C -3.33257e-01 -1.12113e-01  1.39690e-01
       O  8.41108e-01  2.55986e-01 -2.36605e-01
       H -6.83426e-02  8.27862e-01 -6.04083e-01
       H -4.71222e-01 -8.85240e-01  8.74670e-01
       L  5.39816e+01 -1.21148e+00 -1.96784e-01
       L -2.43347e+00  7.02599e+00  2.83273e+00
6
# CELL(abcABC):  459.05226   459.05226   459.05226    90.00000    90.00000    90.00000  Step:          15  Bead:       0 x_centroid{angstrom}  cell{atomic_unit}
       C -3.36019e-01 -1.11610e-01  1.44631e-01
       O  8.42865e-01  2.55162e-01 -2.40476e-01
       H -7.35855e-02  8.29729e-01 -6.06435e-01
       H -4.60588e-01 -8.79902e-01  8.79472e-01
       L  5.33765e+01 -1.23370e+00 -1.78240e-01
       L -2.49780e+00  6.81618e+00  3.01596e+00
6
# CELL(abcABC):  459.05226   459.05226   459.05226    90.00000    90.00000    90.00000  Step:          16  Bead:       0 x_centroid{angstrom}  cell{atomic_unit}
       C -3.38345e-01 -1.10966e-01  1.49344e-01
       O  8.43458e-01  2.54379e-01 -2.44239e-01
       H -6.81893e-02  8.31290e-01 -6.10329e-01
       H -4.47325e-01 -8.76561e-01  8.86881e-01
       L  5.27756e+01 -1.20751e+00 -2.22428e-01
       L -2.55110e+00  6.53890e+00  3.16614e+00
6
# CELL(abcABC):  459.05226   459.05226   459.05226    90.00000    90.00000    90.00000  Step:          17  Bead:       0 x_centroid{angstrom}  cell{atomic_unit}
       C -3.40130e-01 -1.10500e-01  1.54067e-01
       O  8.42843e-01  2.53836e-01 -2.48024e-01
       H -5.43423e-02  8.33986e-01 -6.14810e-01
       H -4.29810e-01 -8.76028e-01  8.95134e-01
       L  5.22556e+01 -1.18923e+00 -2.57096e-01
       L -2.65557e+00  6.22321e+00  3.23992e+00
6
# CELL(abcABC):  459.05226   459.05226   459.05226    90.00000    90.00000    90.00000  Step:          18  Bead:       0 x_centroid{angstrom}  cell{atomic_unit}
       C -3.42026e-01 -1.09861e-01  1.58900e-01
       O  8.41979e-01  2.53278e-01 -2.51996e-01
       H -3.60071e-02  8.37883e-01 -6.19325e-01
       H -4.11550e-01 -8.78565e-01  9.05115e-01
       L  5.18124e+01 -1.09820e+00 -3.10903e-01
       L -2.72685e+00  5.90819e+00  3.28541e+00
6
# CELL(abcABC):  459.05226   459.05226   459.05226    90.00000    90.00000    90.00000  Step:          19  Bead:       0 x_centroid{angstrom}  cell{atomic_unit}
       C -3.44326e-01 -1.08966e-01  1.63747e-01
       O  8.41615e-01  2.52826e-01 -2.55946e-01
       H -1.95805e-02  8.38992e-01 -6.23836e-01
       H -3.94502e-01 -8.83078e-01  9.14610e-01
       L  5.12674e+01 -9.55240e-01 -3.61332e-01
       L -2.72691e+00  5.59622e+00  3.27144e+00
6
# CELL(abcABC):  459.05226   459.05226   459.05226    90.00000    90.00000    90.00000  Step:          20  Bead:       0 x_centroid{angstrom}  cell{atomic_unit}
       C -3.47477e-01 -1.07765e-01  1.69212e-01
       O  8.42242e-01  2.52414e-01 -2.60277e-01
       H -8.08045e-03  8.36069e-01 -6.27371e-01
       H -3.78072e-01 -8.87830e-01  9.21855e-01
       L  5.06619e+01 -7.80941e-01 -4.85351e-01
       L -2.71994e+00  5.24897e+00  3.24325e+00
6
# CELL(abcABC):  459.05226   459.05226   459.05226    90.00000    90.00000    90.00000  Step:          21  Bead:       0 x_centroid{angstrom}  cell{atomic_unit}
       C -3.51144e-01 -1.06714e-01  1.75099e-01
       O  8.43751e-01  2.52175e-01 -2.64839e-01
       H -2.17085e-03  8.31822e-01 -6.29629e-01
       H -3.63890e-01 -8.92234e-01  9.26487e-01
       L  4.99898e+01 -5.56599e-01 -6.30520e-01
       L -2.68023e+00  4.88104e+00  3.18098e+00
6
# CELL(abcABC):  459.05226   459.05226   459.05226    90.00000    90.00000    90.00000  Step:          22  Bead:       0 x_centroid{angstrom}  cell{atomic_unit}
       C -3.55349e-01 -1.05846e-01  1.81424e-01
       O  8.46061e-01  2.52205e-01 -2.69451e-01
       H -1.08022e-03  8.25434e-01 -6.33397e-01
       H -3.51205e-01 -8.96562e-01  9.28219e-01
       L  4.92644e+01 -3.25410e-01 -8.04766e-01
       L -2.57206e+00  4.47216e+00  3.13976e+00
6
# CELL(abcABC):  459.05226   459.05226   459.05226    90.00000    90.00000    90.00000  Step:          23  Bead:       0 x_centroid{angstrom}  cell{atomic_unit}
       C -3.59706e-01 -1.05081e-01  1.88139e-01
       O  8.48680e-01  2.52348e-01 -2.74220e-01
       H -1.04540e-03  8.18743e-01 -6.38047e-01
       H -3.40498e-01 -9.01189e-01  9.28691e-01
       L  4.84368e+01 -6.89684e-02 -1.00218e+00
       L -2.46814e+00  4.08229e+00  3.06651e+00
6
# CELL(abcABC):  459.05226   459.05226   459.05226    90.00000    90.00000    90.00000  Step:          24  Bead:       0 x_centroid{angstrom}  cell{atomic_unit}
       C -3.64302e-01 -1.04139e-01  1.95025e-01
       O  8.51528e-01  2.52385e-01 -2.79021e-01
       H -1.84328e-03  8.12812e-01 -6.44723e-01
       H -3.29760e-01 -9.07001e-01  9.29653e-01
       L  4.75600e+01  1.91602e-01 -1.13039e+00
       L -2.31381e+00  3.70607e+00  2.96800e+00
6
# CELL(abcABC):  459.05226   459.05226   459.05226    90.00000    90.00000    90.00000  Step:          25  Bead:       0 x_centroid{angstrom}  cell{atomic_unit}
       C -3.68869e-01 -1.03101e-01  2.01891e-01
       O  8.54067e-01  2.52051e-01 -2.83761e-01
       H  1.58552e-03  8.10798e-01 -6.54041e-01
       H -3.18640e-01 -9.11998e-01  9.32538e-01
       L  4.66199e+01  4.12497e-01 -1.24284e+00
       L -2.15979e+00  3.37033e+00  2.81116e+00
6
# CELL(abcABC):  459.05226   459.05226   459.05226    90.00000    90.00000    90.00000  Step:          26  Bead:       0 x_centroid{angstrom}  cell{atomic_unit}
       C -3.73345e-01 -1.02234e-01  2.08607e-01
       O  8.56131e-01  2.51656e-01 -2.88374e-01
       H  1.01191e-02  8.12306e-01 -6.65628e-01
       H -3.06140e-01 -9.17526e-01  9.37432e-01
       L  4.56119e+01  6.10830e-01 -1.33042e+00
       L -1.98815e+00  3.08933e+00  2.67410e+00
6
# CELL(abcABC):  459.05226   459.05226   459.05226    90.00000    90.00000    90.00000  Step:          27  Bead:       0 x_centroid{angstrom}  cell{atomic_unit}
       C -3.77244e-01 -1.01549e-01  2.15211e-01
       O  8.57208e-01  2.51118e-01 -2.92667e-01
       H  2.51946e-02  8.17228e-01 -6.81317e-01
       H -2.91414e-01 -9.22040e-01  9.42748e-01
       L  4.45810e+01  7.43581e-01 -1.45473e+00
       L -1.78288e+00  2.89128e+00  2.49443e+00
6
# CELL(abcABC):  459.05226   459.05226   459.05226    90.00000    90.00000    90.00000  Step:          28  Bead:       0 x_centroid{angstrom}  cell{atomic_unit}
       C -3.80618e-01 -1.00989e-01  2.21958e-01
       O  8.57510e-01  2.50553e-01 -2.97050e-01
       H  4.63344e-02  8.24212e-01 -6.97921e-01
       H -2.76691e-01 -9.26702e-01  9.48699e-01
       L  4.35381e+01  8.57126e-01 -1.57380e+00
       L -1.55973e+00  2.75603e+00  2.28682e+00
6
# CELL(abcABC):  459.05226   459.05226   459.05226    90.00000    90.00000    90.00000  Step:          29  Bead:       0 x_centroid{angstrom}  cell{atomic_unit}
       C -3.84108e-01 -1.00592e-01  2.29075e-01
       O  8.57498e-01  2.50029e-01 -3.01574e-01
       H  7.34644e-02  8.32971e-01 -7.17103e-01
       H -2.61567e-01 -9.31889e-01  9.55066e-01
       L  4.24285e+01  1.01275e+00 -1.64534e+00
       L -1.33982e+00  2.61959e+00  2.03680e+00
6
# CELL(abcABC):  459.05226   459.05226   459.05226    90.00000    90.00000    90.00000  Step:          30  Bead:       0 x_centroid{angstrom}  cell{atomic_unit}
       C -3.87640e-01 -1.00413e-01  2.36759e-01
       O  8.57305e-01  2.49593e-01 -3.06472e-01
       H  1.05628e-01  8.41528e-01 -7.36135e-01
       H -2.48033e-01 -9.35641e-01  9.60476e-01
       L  4.12122e+01  1.13000e+00 -1.76093e+00
       L -1.08525e+00  2.45940e+00  1.78710e+00
6
# CELL(abcABC):  459.05226   459.05226   459.05226    90.00000    90.00000    90.00000  Step:          31  Bead:       0 x_centroid{angstrom}  cell{atomic_unit}
       C -3.91437e-01 -1.00571e-01  2.45020e-01
       O  8.57090e-01  2.49447e-01 -3.11787e-01
       H  1.41597e-01  8.47864e-01 -7.54278e-01
       H -2.34742e-01 -9.37742e-01  9.64730e-01
       L  3.98894e+01  1.21201e+00 -1.88528e+00
       L -8.80269e-01  2.29851e+00  1.56602e+00
6
# CELL(abcABC):  459.05226   459.05226   459.05226    90.00000    90.00000    90.00000  Step:          32  Bead:       0 x_centroid{angstrom}  cell{atomic_unit}
       C -3.95681e-01 -1.00616e-01  2.53906e-01
       O  8.57156e-01  2.49241e-01 -3.17404e-01
       H  1.79989e-01  8.53294e-01 -7.72576e-01
       H -2.22893e-01 -9.39335e-01  9.66448e-01
       L  3.84006e+01  1.34387e+00 -1.93119e+00
       L -7.07638e-01  2.15015e+00  1.34204e+00
6
# CELL(abcABC):  459.05226   459.05226   459.05226    90.00000    90.00000    90.00000  Step:          33  Bead:       0 x_centroid{angstrom}  cell{atomic_unit}
       C -4.00384e-01 -1.01186e-01  2.63438e-01
       O  8.57516e-01  2.49337e-01 -3.23486e-01
       H  2.20409e-01  8.58685e-01 -7.89625e-01
       H -2.12225e-01 -9.39433e-01  9.66588e-01
       L  3.67673e+01  1.47292e+00 -1.98468e+00
       L -4.97415e-01  1.94122e+00  1.15428e+00
6
# CELL(abcABC):  459.05226   459.05226   459.05226    90.00000    90.00000    90.00000  Step:          34  Bead:       0 x_centroid{angstrom}  cell{atomic_unit}
       C -4.05775e-01 -1.02180e-01  2.73774e-01
       O  8.58286e-01  2.49847e-01 -3.30021e-01
       H  2.62711e-01  8.62643e-01 -8.07731e-01
       H -2.01643e-01 -9.39585e-01  9.65406e-01
       L  3.49975e+01  1.56098e+00 -2.04555e+00
       L -3.13064e-01  1.77188e+00  9.56059e-01
6
# CELL(abcABC):  459.05226   459.05226   459.05226    90.00000    90.00000    90.00000  Step:          35  Bead:       0 x_centroid{angstrom}  cell{atomic_unit}
       C -4.11472e-01 -1.03333e-01  2.84628e-01
       O  8.59291e-01  2.50512e-01 -3.36943e-01
       H  3.06338e-01  8.64975e-01 -8.25533e-01
       H -1.92457e-01 -9.38673e-01  9.63884e-01
       L  3.31540e+01  1.62073e+00 -2.05397e+00
       L -6.37037e-02  1.59558e+00  7.28037e-01
6
# CELL(abcABC):  459.05226   459.05226   459.05226    90.00000    90.00000    90.00000  Step:          36  Bead:       0 x_centroid{angstrom}  cell{atomic_unit}
       C -4.17832e-01 -1.04796e-01  2.96077e-01
       O  8.60812e-01  2.51294e-01 -3.44193e-01
       H  3.50127e-01  8.69505e-01 -8.45066e-01
       H -1.83654e-01 -9.38110e-01  9.62152e-01
       L  3.11922e+01  1.65611e+00 -2.03984e+00
       L  1.60524e-01  1.41689e+00  5.52454e-01
6
# CELL(abcABC):  459.05226   459.05226   459.05226    90.00000    90.00000    90.00000  Step:          37  Bead:       0 x_centroid{angstrom}  cell{atomic_unit}
       C -4.24123e-01 -1.06461e-01  3.07699e-01
       O  8.62302e-01  2.52044e-01 -3.51579e-01
       H  3.93163e-01  8.77580e-01 -8.65931e-01
       H -1.74372e-01 -9.38150e-01  9.61861e-01
       L  2.91888e+01  1.68355e+00 -2.05002e+00
       L  3.11118e-01  1.21418e+00  3.79681e-01
6
# CELL(abcABC):  459.05226   459.05226   459.05226    90.00000    90.00000    90.00000  Step:          38  Bead:       0 x_centroid{angstrom}  cell{atomic_unit}
       C -4.30294e-01 -1.07953e-01  3.19212e-01
       O  8.63640e-01  2.52603e-01 -3.58700e-01
       H  4.35922e-01  8.88224e-01 -8.90047e-01
       H -1.63800e-01 -9.39810e-01  9.61962e-01
       L  2.70772e+01  1.71207e+00 -2.08381e+00
       L  5.14876e-01  1.04460e+00  1.79499e-01
6
# CELL(abcABC):  459.05226   459.05226   459.05226    90.00000    90.00000    90.00000  Step:          39  Bead:       0 x_centroid{angstrom}  cell{atomic_unit}
       C -4.36199e-01 -1.09315e-01  3.30757e-01
       O  8.64832e-01  2.52882e-01 -3.65737e-01
       H  4.76144e-01  9.02610e-01 -9.16731e-01
       H -1.51545e-01 -9.42370e-01  9.62883e-01
       L  2.49624e+01  1.73913e+00 -2.10726e+00
       L  7.18398e-01  9.71236e-01 -8.65102e-03
6
# CELL(abcABC):  459.05226   459.05226   459.05226    90.00000    90.00000    90.00000  Step:          40  Bead:       0 x_centroid{angstrom}  cell{atomic_unit}
       C -4.41730e-01 -1.10374e-01  3.41958e-01
       O  8.65652e-01  2.52901e-01 -3.72459e-01
       H  5.15899e-01  9.19559e-01 -9.45535e-01
       H -1.37360e-01 -9.46984e-01  9.65007e-01
       L  2.28341e+01  1.75533e+00 -2.10429e+00
       L  9.38982e-01  9.35462e-01 -1.83013e-01
6
# CELL(abcABC):  459.05226   459.05226   459.05226    90.00000    90.00000    90.00000  Step:          41  Bead:       0 x_centroid{angstrom}  cell{atomic_unit}
       C -4.46490e-01 -1.11226e-01  3.52634e-01
       O  8.65868e-01  2.52657e-01 -3.78865e-01
       H  5.53684e-01  9.38674e-01 -9.74726e-01
       H -1.20810e-01 -9.52105e-01  9.68705e-01
       L  2.06494e+01  1.76740e+00 -2.04426e+00
       L  1.18331e+00  9.58186e-01 -2.95897e-01
6
# CELL(abcABC):  459.05226   459.05226   459.05226    90.00000    90.00000    90.00000  Step:          42  Bead:       0 x_centroid{angstrom}  cell{atomic_unit}
       C -4.50628e-01 -1.11891e-01  3.62611e-01
       O  8.65522e-01  2.52305e-01 -3.84815e-01
       H  5.91109e-01  9.56272e-01 -1.00237e+00
       H -1.02328e-01 -9.56201e-01  9.71931e-01
       L  1.84148e+01  1.79065e+00 -1.96588e+00
       L  1.39279e+00  9.69435e-01 -4.30099e-01
6
# CELL(abcABC):  459.05226   459.05226   459.05226    90.00000    90.00000    90.00000  Step:          43  Bead:       0 x_centroid{angstrom}  cell{atomic_unit}
       C -4.54076e-01 -1.12117e-01  3.72209e-01
       O  8.64709e-01  2.51826e-01 -3.90640e-01
       H  6.28440e-01  9.69767e-01 -1.02717e+00
       H -8.45376e-02 -9.59399e-01  9.74845e-01
       L  1.61410e+01  1.80268e+00 -1.88976e+00
       L  1.57741e+00  9.39339e-01 -5.56757e-01
6
# CELL(abcABC):  459.05226   459.05226   459.05226    90.00000    90.00000    90.00000  Step:          44  Bead:       0 x_centroid{angstrom}  cell{atomic_unit}
       C -4.56945e-01 -1.11939e-01  3.81352e-01
       O  8.63599e-01  2.51241e-01 -3.96210e-01
       H  6.65091e-01  9.78860e-01 -1.04899e+00
       H -6.81900e-02 -9.61277e-01  9.76161e-01
       L  1.38168e+01  1.78554e+00 -1.77880e+00
       L  1.72974e+00  8.63482e-01 -6.96234e-01
6
# CELL(abcABC):  459.05226   459.05226   459.05226    90.00000    90.00000    90.00000  Step:          45  Bead:       0 x_centroid{angstrom}  cell{atomic_unit}
       C -4.59097e-01 -1.11877e-01  3.90218e-01
       O  8.62009e-01  2.51006e-01 -4.01789e-01
       H  7.00656e-01  9.82394e-01 -1.06628e+00
       H -5.16516e-02 -9.61742e-01  9.76380e-01
       L  1.14387e+01  1.73256e+00 -1.65005e+00
       L  1.86366e+00  7.67470e-01 -8.68893e-01
6
# CELL(abcABC):  459.05226   459.05226   459.05226    90.00000    90.00000    90.00000  Step:          46  Bead:       0 x_centroid{angstrom}  cell{atomic_unit}
       C -4.60276e-01 -1.11809e-01  3.98687e-01
       O  8.59847e-01  2.51071e-01 -4.07311e-01
       H  7.33848e-01  9.80574e-01 -1.07732e+00
       H -3.52496e-02 -9.61614e-01  9.74221e-01
       L  9.07400e+00  1.60710e+00 -1.53304e+00
       L  1.95961e+00  6.35422e-01 -1.10672e+00
6
# CELL(abcABC):  459.05226   459.05226   459.05226    90.00000    90.00000    90.00000  Step:          47  Bead:       0 x_centroid{angstrom}  cell{atomic_unit}
       C -4.60357e-01 -1.11649e-01  4.06796e-01
       O  8.57110e-01  2.51427e-01 -4.12736e-01
       H  7.64558e-01  9.72383e-01 -1.08317e+00
       H -2.03134e-02 -9.60829e-01  9.69615e-01
       L  6.70554e+00  1.51958e+00 -1.40521e+00
       L  2.06159e+00  4.45731e-01 -1.34516e+00
6
# CELL(abcABC):  459.05226   459.05226   459.05226    90.00000    90.00000    90.00000  Step:          48  Bead:       0 x_centroid{angstrom}  cell{atomic_unit}
       C -4.59243e-01 -1.11273e-01  4.14428e-01
       O  8.53714e-01  2.51853e-01 -4.17823e-01
       H  7.92830e-01  9.60220e-01 -1.08673e+00
       H -6.72004e-03 -9.59780e-01  9.63040e-01
       L  4.33753e+00  1.48881e+00 -1.25905e+00
       L  2.17227e+00  2.35894e-01 -1.59871e+00
6
# CELL(abcABC):  459.05226   459.05226   459.05226    90.00000    90.00000    90.00000  Step:          49  Bead:       0 x_centroid{angstrom}  cell{atomic_unit}
       C -4.57453e-01 -1.10350e-01  4.21405e-01
       O  8.50048e-01  2.51965e-01 -4.22590e-01
       H  8.18639e-01  9.44834e-01 -1.08747e+00
       H  5.58358e-03 -9.57002e-01  9.56345e-01
       L  2.01811e+00  1.42318e+00 -1.10802e+00
       L  2.20313e+00 -3.44096e-04 -1.81833e+00
6
# CELL(abcABC):  459.05226   459.05226   459.05226    90.00000    90.00000    90.00000  Step:          50  Bead:       0 x_centroid{angstrom}  cell{atomic_unit}
       C -4.54532e-01 -1.09092e-01  4.27655e-01
       O  8.45777e-01  2.51665e-01 -4.26844e-01
       H  8.39744e-01  9.29318e-01 -1.08688e+00
       H  1.87207e-02 -9.51555e-01  9.48836e-01
       L -3.33440e-01  1.34312e+00 -9.53386e-01
       L  2.23964e+00 -2.24623e-01 -2.01675e+00
6
# CELL(abcABC):  459.05226   459.05226   459.05226    90.00000    90.00000    90.00000  Step:          51  Bead:       0 x_centroid{angstrom}  cell{atomic_unit}
       C -4.50640e-01 -1.07024e-01  4.32920e-01
       O  8.40956e-01  2.50570e-01 -4.30438e-01
       H  8.57342e-01  9.15971e-01 -1.08492e+00
       H  3.25530e-02 -9.45314e-01  9.41189e-01
       L -2.72132e+00  1.25545e+00 -7.92945e-01
       L  2.25734e+00 -4.14681e-01 -2.17877e+00
6
# CELL(abcABC):  459.05226   459.05226   459.05226    90.00000    90.00000    90.00000  Step:          52  Bead:       0 x_centroid{angstrom}  cell{atomic_unit}
       C -4.45929e-01 -1.04281e-01  4.37136e-01
       O  8.35632e-01  2.48703e-01 -4.33352e-01
       H  8.71671e-01  9.05511e-01 -1.08246e+00
       H  4.79124e-02 -9.37815e-01  9.34754e-01
       L -5.08871e+00  1.18496e+00 -6.74389e-01
       L  2.23428e+00 -5.13215e-01 -2.34265e+00
6
# CELL(abcABC):  459.05226   459.05226   459.05226    90.00000    90.00000    90.00000  Step:          53  Bead:       0 x_centroid{angstrom}  cell{atomic_unit}
       C -4.40244e-01 -1.00982e-01  4.40207e-01
       O  8.29731e-01  2.46072e-01 -4.35355e-01
       H  8.82083e-01  9.00191e-01 -1.08164e+00
       H  6.47589e-02 -9.29906e-01  9.29151e-01
       L -7.50441e+00  1.07001e+00 -5.21001e-01
       L  2.17497e+00 -6.36053e-01 -2.50437e+00
6
# CELL(abcABC):  459.05226   459.05226   459.05226    90.00000    90.00000    90.00000  Step:          54  Bead:       0 x_centroid{angstrom}  cell{atomic_unit}
       C -4.34061e-01 -9.73525e-02  4.42287e-01
       O  8.23729e-01  2.42928e-01 -4.36636e-01
       H  8.88135e-01  8.99679e-01 -1.08135e+00
       H  8.17004e-02 -9.22595e-01  9.24371e-01
       L -9.95194e+00  9.14278e-01 -3.71295e-01
       L  2.05896e+00 -7.44170e-01 -2.59294e+00
6
# CELL(abcABC):  459.05226   459.05226   459.05226    90.00000    90.00000    90.00000  Step:          55  Bead:       0 x_centroid{angstrom}  cell{atomic_unit}
       C -4.27095e-01 -9.33224e-02  4.43623e-01
       O  8.17449e-01  2.39310e-01 -4.37271e-01
       H  8.90154e-01  9.01834e-01 -1.08255e+00
       H  9.77230e-02 -9.15199e-01  9.19661e-01
       L -1.23829e+01  7.75078e-01 -2.25283e-01
       L  1.98800e+00 -8.73999e-01 -2.61307e+00
6
# CELL(abcABC):  459.05226   459.05226   459.05226    90.00000    90.00000    90.00000  Step:          56  Bead:       0 x_centroid{angstrom}  cell{atomic_unit}
       C -4.19888e-01 -8.89637e-02  4.44287e-01
       O  8.11469e-01  2.35429e-01 -4.37367e-01
       H  8.86608e-01  9.05122e-01 -1.08435e+00
       H  1.11700e-01 -9.08700e-01  9.14992e-01
       L -1.48360e+01  6.67173e-01 -6.87370e-02
       L  1.91267e+00 -9.95356e-01 -2.61877e+00
6
# CELL(abcABC):  459.05226   459.05226   459.05226    90.00000    90.00000    90.00000  Step:          57  Bead:       0 x_centroid{angstrom}  cell{atomic_unit}
       C -4.12358e-01 -8.39611e-02  4.44609e-01
       O  8.05734e-01  2.31257e-01 -4.37280e-01
       H  8.76316e-01  9.07305e-01 -1.08540e+00
       H  1.24706e-01 -9.04142e-01  9.10741e-01
       L -1.73684e+01  5.49792e-01  6.78566e-02
       L  1.82287e+00 -1.12387e+00 -2.60020e+00
6
# CELL(abcABC):  459.05226   459.05226   459.05226    90.00000    90.00000    90.00000  Step:          58  Bead:       0 x_centroid{angstrom}  cell{atomic_unit}
       C -4.04621e-01 -7.88307e-02  4.44634e-01
       O  8.00432e-01  2.27234e-01 -4.37059e-01
       H  8.60034e-01  9.06951e-01 -1.08570e+00
       H  1.34470e-01 -9.00893e-01  9.07109e-01
       L -2.00017e+01  4.63308e-01  2.17852e-01
       L  1.67408e+00 -1.34782e+00 -2.51845e+00
6
# CELL(abcABC):  459.05226   459.05226   459.05226    90.00000    90.00000    90.00000  Step:          59  Bead:       0 x_centroid{angstrom}  cell{atomic_unit}
       C -3.96323e-01 -7.35909e-02  4.44589e-01
       O  7.95359e-01  2.23317e-01 -4.36633e-01
       H  8.37228e-01  9.03866e-01 -1.08735e+00
       H  1.40466e-01 -8.97883e-01  9.02397e-01
       L -2.26457e+01  3.87821e-01  3.74517e-01
       L  1.50084e+00 -1.60401e+00 -2.43433e+00
6
# CELL(abcABC):  459.05226   459.05226   459.05226    90.00000    90.00000    90.00000  Step:          60  Bead:       0 x_centroid{angstrom}  cell{atomic_unit}
       C -3.87426e-01 -6.82471e-02  4.44951e-01
       O  7.90427e-01  2.19469e-01 -4.36424e-01
       H  8.07859e-01  8.98976e-01 -1.08931e+00
       H  1.43636e-01 -8.95381e-01  8.96600e-01
       L -2.53194e+01  3.17429e-01  5.16942e-01
       L  1.35865e+00 -1.93123e+00 -2.34380e+00
6
# CELL(abcABC):  459.05226   459.05226   459.05226    90.00000    90.00000    90.00000  Step:          61  Bead:       0 x_centroid{angstrom}  cell{atomic_unit}
       C -3.78072e-01 -6.29763e-02  4.45087e-01
       O  7.85656e-01  2.15786e-01 -4.36102e-01
       H  7.73725e-01  8.92729e-01 -1.09168e+00
       H  1.43585e-01 -8.93216e-01  8.92108e-01
       L -2.80230e+01  2.49091e-01  6.47715e-01
       L  1.21403e+00 -2.33425e+00 -2.23058e+00
6
# CELL(abcABC):  459.05226   459.05226   459.05226    90.00000    90.00000    90.00000  Step:          62  Bead:       0 x_centroid{angstrom}  cell{atomic_unit}
       C -3.67825e-01 -5.75000e-02  4.44819e-01
       O  7.80628e-01  2.12074e-01 -4.35477e-01
       H  7.36993e-01  8.85678e-01 -1.09485e+00
       H  1.39618e-01 -8.92152e-01  8.88392e-01
       L -3.07682e+01  1.28747e-01  7.63990e-01
       L  1.05064e+00 -2.84090e+00 -2.07149e+00
6
# CELL(abcABC):  459.05226   459.05226   459.05226    90.00000    90.00000    90.00000  Step:          63  Bead:       0 x_centroid{angstrom}  cell{atomic_unit}
       C -3.56352e-01 -5.20230e-02  4.43819e-01
       O  7.74956e-01  2.08528e-01 -4.34354e-01
       H  6.98963e-01  8.77026e-01 -1.09877e+00
       H  1.32524e-01 -8.92097e-01  8.86274e-01
       L -3.34815e+01  1.29959e-02  8.51721e-01
       L  8.79279e-01 -3.44613e+00 -1.90697e+00
6
# CELL(abcABC):  459.05226   459.05226   459.05226    90.00000    90.00000    90.00000  Step:          64  Bead:       0 x_centroid{angstrom}  cell{atomic_unit}
       C -3.43904e-01 -4.62540e-02  4.42070e-01
       O  7.68738e-01  2.04966e-01 -4.32685e-01
       H  6.61207e-01  8.66611e-01 -1.10350e+00
       H  1.22215e-01 -8.93436e-01  8.85213e-01
       L -3.61687e+01 -1.47268e-01  9.71027e-01
       L  6.85787e-01 -4.10475e+00 -1.77327e+00
6
# CELL(abcABC):  459.05226   459.05226   459.05226    90.00000    90.00000    90.00000  Step:          65  Bead:       0 x_centroid{angstrom}  cell{atomic_unit}
       C -3.30510e-01 -4.06323e-02  4.39348e-01
       O  7.61791e-01  2.01680e-01 -4.30408e-01
       H  6.25251e-01  8.54468e-01 -1.10841e+00
       H  1.10411e-01 -8.95568e-01  8.86298e-01
       L -3.87663e+01 -3.70133e-01  1.07420e+00
       L  4.12126e-01 -4.88622e+00 -1.65083e+00
6
# CELL(abcABC):  459.05226   459.05226   459.05226    90.00000    90.00000    90.00000  Step:          66  Bead:       0 x_centroid{angstrom}  cell{atomic_unit}
       C -3.15861e-01 -3.47288e-02  4.35652e-01