6
# CELL(abcABC):  459.05226   459.05226   459.05226    90.00000    90.00000    90.00000  Step:           0  Bead:       0 x_centroid{angstrom}  cell{atomic_unit}
       C -3.39887e-01 -1.13437e-01  8.06659e-02
       O  8.43483e-01  2.62672e-01 -1.81512e-01
       H -7.35799e-02  8.16467e-01 -6.61432e-01
       H -4.30016e-01 -9.65701e-01  7.62278e-01
       L  6.13458e+01  0.00000e+00  0.00000e+00
       L  0.00000e+00  8.59064e+00  0.00000e+00
6
# CELL(abcABC):  459.05226   459.05226   459.05226    90.00000    90.00000    90.00000  Step:           1  Bead:       0 x_centroid{angstrom}  cell{atomic_unit}
       C -3.37882e-01 -1.13131e-01  8.01509e-02
       O  8.42959e-01  2.62722e-01 -1.82235e-01
       H -7.85265e-02  8.09224e-01 -6.48498e-01
       H -4.40366e-01 -9.63075e-01  7.66820e-01
       L  6.13975e+01  4.74598e-01  1.36344e-03
       L -5.46488e-01  8.40751e+00  2.36821e-01
6
# CELL(abcABC):  459.05226   459.05226   459.05226    90.00000    90.00000    90.00000  Step:           2  Bead:       0 x_centroid{angstrom}  cell{atomic_unit}
       C -3.35736e-01 -1.13317e-01  7.98773e-02
       O  8.42102e-01  2.62931e-01 -1.83018e-01
       H -8.11247e-02  8.04670e-01 -6.37473e-01
       H -4.49478e-01 -9.59805e-01  7.71337e-01
       L  6.14631e+01  9.85031e-01  2.03822e-02
       L -1.09719e+00  8.26877e+00  4.90420e-01
6
# CELL(abcABC):  459.05226   459.05226   459.05226    90.00000    90.00000    90.00000  Step:           3  Bead:       0 x_centroid{angstrom}  cell{atomic_unit}
       C -3.33089e-01 -1.13406e-01  7.93727e-02
       O  8.40720e-01  2.62966e-01 -1.83611e-01
       H -8.10068e-02  8.02639e-01 -6.27565e-01
       H -4.58931e-01 -9.57480e-01  7.76728e-01
       L  6.15421e+01  1.51311e+00  2.83158e-02
       L -1.65597e+00  8.11912e+00  7.16740e-01
6
# CELL(abcABC):  459.05226   459.05226   459.05226    90.00000    90.00000    90.00000  Step:           4  Bead:       0 x_centroid{angstrom}  cell{atomic_unit}
       C -3.30521e-01 -1.13473e-01  7.91452e-02
       O  8.39265e-01  2.62717e-01 -1.84396e-01
       H -7.94799e-02  8.04940e-01 -6.19872e-01
       H -4.67718e-01 -9.55300e-01  7.84109e-01
       L  6.16228e+01  2.07942e+00  1.73693e-02
       L -2.22256e+00  8.02989e+00  9.02844e-01
6
# CELL(abcABC):  459.05226   459.05226   459.05226    90.00000    90.00000    90.00000  Step:           5  Bead:       0 x_centroid{angstrom}  cell{atomic_unit}
       C -3.28140e-01 -1.13935e-01  7.92151e-02
       O  8.37904e-01  2.62520e-01 -1.85172e-01
       H -7.77861e-02  8.10236e-01 -6.14779e-01
       H -4.75952e-01 -9.52183e-01  7.90420e-01
       L  6.17137e+01  2.57040e+00  2.81714e-03
       L -2.70616e+00  7.95564e+00  1.05726e+00
6
# CELL(abcABC):  459.05226   459.05226   459.05226    90.00000    90.00000    90.00000  Step:           6  Bead:       0 x_centroid{angstrom}  cell{atomic_unit}
       C -3.25939e-01 -1.14513e-01  7.93963e-02
       O  8.36789e-01  2.62272e-01 -1.85882e-01
       H -7.75187e-02  8.17041e-01 -6.12080e-01
       H -4.84528e-01 -9.48375e-01  7.96755e-01
       L  6.17927e+01  3.01523e+00 -1.21082e-02
       L -3.18830e+00  7.88596e+00  1.22285e+00
6
# CELL(abcABC):  459.05226   459.05226   459.05226    90.00000    90.00000    90.00000  Step:           7  Bead:       0 x_centroid{angstrom}  cell{atomic_unit}
       C -3.24267e-01 -1.15100e-01  7.97460e-02
       O  8.36215e-01  2.61936e-01 -1.86554e-01
       H -7.95627e-02  8.25176e-01 -6.10008e-01
       H -4.93071e-01 -9.44352e-01  8.01075e-01
       L  6.18379e+01  3.42355e+00 -3.52883e-02
       L -3.66663e+00  7.80825e+00  1.43867e+00
6
# CELL(abcABC):  459.05226   459.05226   459.05226    90.00000    90.00000    90.00000  Step:           8  Bead:       0 x_centroid{angstrom}  cell{atomic_unit}
       C -3.22787e-01 -1.15631e-01  8.03779e-02
       O  8.36009e-01  2.61402e-01 -1.87356e-01
       H -8.46279e-02  8.34097e-01 -6.09070e-01
       H -5.02090e-01 -9.38668e-01  8.05232e-01
       L  6.18262e+01  3.88160e+00 -2.96806e-02
       L -4.14137e+00  7.69432e+00  1.62367e+00
6
# CELL(abcABC):  459.05226   459.05226   459.05226    90.00000    90.00000    90.00000  Step:           9  Bead:       0 x_centroid{angstrom}  cell{atomic_unit}
       C -3.21476e-01 -1.16402e-01  8.12009e-02
       O  8.36019e-01  2.60962e-01 -1.88117e-01
       H -9.29622e-02  8.43022e-01 -6.09295e-01
       H -5.09289e-01 -9.31530e-01  8.07578e-01
       L  6.18000e+01  4.26731e+00  4.33560e-02
       L -4.56544e+00  7.53185e+00  1.83446e+00
6
# CELL(abcABC):  459.05226   459.05226   459.05226    90.00000    90.00000    90.00000  Step:          10  Bead:       0 x_centroid{angstrom}  cell{atomic_unit}
       C -3.20145e-01 -1.17133e-01  8.16327e-02
       O  8.35886e-01  2.60564e-01 -1.88412e-01
       H -1.00444e-01  8.50507e-01 -6.10423e-01
       H -5.15391e-01 -9.24091e-01  8.08129e-01
       L  6.18447e+01  4.63869e+00  1.02560e-01
       L -4.92362e+00  7.34191e+00  2.00200e+00
6
# CELL(abcABC):  459.05226   459.05226   459.05226    90.00000    90.00000    90.00000  Step:          11  Bead:       0 x_centroid{angstrom}  cell{atomic_unit}
       C -3.19152e-01 -1.18071e-01  8.21106e-02
       O  8.35768e-01  2.60519e-01 -1.88686e-01
       H -1.05515e-01  8.55763e-01 -6.11324e-01
       H -5.20126e-01 -9.17504e-01  8.07576e-01
       L  6.18874e+01  4.94436e+00  2.04092e-01
       L -5.26138e+00  7.13221e+00  2.09676e+00
6
# CELL(abcABC):  459.05226   459.05226   459.05226    90.00000    90.00000    90.00000  Step:          12  Bead:       0 x_centroid{angstrom}  cell{atomic_unit}
       C -3.18487e-01 -1.18981e-01  8.28598e-02
       O  8.35417e-01  2.60767e-01 -1.89221e-01
       H -1.05307e-01  8.58718e-01 -6.11369e-01
       H -5.22547e-01 -9.13566e-01  8.07098e-01
       L  6.20067e+01  5.19125e+00  2.99660e-01
       L -5.62024e+00  6.90632e+00  2.15056e+00
6
# CELL(abcABC):  459.05226   459.05226   459.05226    90.00000    90.00000    90.00000  Step:          13  Bead:       0 x_centroid{angstrom}  cell{atomic_unit}
       C -3.17896e-01 -1.19582e-01  8.35938e-02
       O  8.34710e-01  2.61095e-01 -1.89786e-01
       H -1.01085e-01  8.58589e-01 -6.10995e-01
       H -5.22485e-01 -9.11495e-01  8.06865e-01
       L  6.21162e+01  5.42222e+00  3.69915e-01
       L -5.92310e+00  6.68277e+00  2.22673e+00
6
# CELL(abcABC):  459.05226   459.05226   459.05226    90.00000    90.00000    90.00000  Step:          14  Bead:       0 x_centroid{angstrom}  cell{atomic_unit}
       C -3.17280e-01 -1.19951e-01  8.40900e-02
       O  8.33730e-01  2.61566e-01 -1.90231e-01
       H -9.47469e-02  8.55083e-01 -6.09505e-01
       H -5.20599e-01 -9.11015e-01  8.06456e-01
       L  6.23128e+01  5.60904e+00  4.10363e-01
       L -6.14974e+00  6.41097e+00  2.30792e+00
6
# CELL(abcABC):  459.05226   459.05226   459.05226    90.00000    90.00000    90.00000  Step:          15  Bead:       0 x_centroid{angstrom}  cell{atomic_unit}
       C -3.17215e-01 -1.20218e-01  8.42360e-02
       O  8.33063e-01  2.62211e-01 -1.90502e-01
       H -8.88018e-02  8.48331e-01 -6.07792e-01
       H -5.16754e-01 -9.11216e-01  8.07264e-01
       L  6.25652e+01  5.71227e+00  4.05965e-01
       L -6.37655e+00  6.10453e+00  2.39714e+00
6
# CELL(abcABC):  459.05226   459.05226   459.05226    90.00000    90.00000    90.00000  Step:          16  Bead:       0 x_centroid{angstrom}  cell{atomic_unit}
       C -3.17593e-01 -1.20349e-01  8.44147e-02
       O  8.32895e-01  2.62861e-01 -1.90652e-01
       H -8.55200e-02  8.39575e-01 -6.07350e-01
       H -5.12869e-01 -9.11048e-01  8.07033e-01
       L  6.28392e+01  5.74042e+00  3.97354e-01
       L -6.60533e+00  5.78435e+00  2.48144e+00
6
# CELL(abcABC):  459.05226   459.05226   459.05226    90.00000    90.00000    90.00000  Step:          17  Bead:       0 x_centroid{angstrom}  cell{atomic_unit}
       C -3.18432e-01 -1.20414e-01  8.45582e-02
       O  8.33265e-01  2.63456e-01 -1.90570e-01
       H -8.69362e-02  8.30950e-01 -6.08187e-01
       H -5.07383e-01 -9.10888e-01  8.04815e-01
       L  6.30901e+01  5.72761e+00  3.94668e-01
       L -6.78702e+00  5.41685e+00  2.55623e+00
6
# CELL(abcABC):  459.05226   459.05226   459.05226    90.00000    90.00000    90.00000  Step:          18  Bead:       0 x_centroid{angstrom}  cell{atomic_unit}
       C -3.19580e-01 -1.20140e-01  8.46531e-02
       O  8.33976e-01  2.63682e-01 -1.90468e-01
       H -9.17248e-02  8.24740e-01 -6.10126e-01
       H -5.00268e-01 -9.11348e-01  8.03969e-01
       L  6.33388e+01  5.72463e+00  4.09648e-01
       L -6.88939e+00  5.06826e+00  2.60457e+00
6
# CELL(abcABC):  459.05226   459.05226   459.05226    90.00000    90.00000    90.00000  Step:          19  Bead:       0 x_centroid{angstrom}  cell{atomic_unit}
       C -3.20861e-01 -1.20230e-01  8.45825e-02
       O  8.34713e-01  2.64035e-01 -1.90177e-01
       H -9.74122e-02  8.20753e-01 -6.13215e-01
       H -4.91143e-01 -9.11653e-01  8.03306e-01
       L  6.35617e+01  5.65527e+00  3.81500e-01
       L -6.88827e+00  4.71668e+00  2.58968e+00
6
# CELL(abcABC):  459.05226   459.05226   459.05226    90.00000    90.00000    90.00000  Step:          20  Bead:       0 x_centroid{angstrom}  cell{atomic_unit}
       C -3.22179e-01 -1.20136e-01  8.41915e-02
       O  8.35235e-01  2.64104e-01 -1.89776e-01
       H -1.01083e-01  8.20278e-01 -6.17101e-01
       H -4.80269e-01 -9.13150e-01  8.05527e-01
       L  6.37884e+01  5.52840e+00  3.93414e-01
       L -6.72074e+00  4.38700e+00  2.49919e+00
6
# CELL(abcABC):  459.05226   459.05226   459.05226    90.00000    90.00000    90.00000  Step:          21  Bead:       0 x_centroid{angstrom}  cell{atomic_unit}
       C -3.23585e-01 -1.20174e-01  8.39011e-02
       O  8.35597e-01  2.64194e-01 -1.89402e-01
       H -1.02901e-01  8.23097e-01 -6.23687e-01
       H -4.67699e-01 -9.16702e-01  8.09647e-01
       L  6.40195e+01  5.37860e+00  3.95146e-01
       L -6.50190e+00  4.10276e+00  2.47726e+00
6
# CELL(abcABC):  459.05226   459.05226   459.05226    90.00000    90.00000    90.00000  Step:          22  Bead:       0 x_centroid{angstrom}  cell{atomic_unit}
       C -3.24976e-01 -1.20120e-01  8.35803e-02
       O  8.35729e-01  2.64119e-01 -1.89041e-01
       H -1.01942e-01  8.29068e-01 -6.31710e-01
       H -4.54471e-01 -9.21937e-01  8.15797e-01
       L  6.42622e+01  5.23660e+00  4.15744e-01
       L -6.17314e+00  3.86726e+00  2.40906e+00
6
# CELL(abcABC):  459.05226   459.05226   459.05226    90.00000    90.00000    90.00000  Step:          23  Bead:       0 x_centroid{angstrom}  cell{atomic_unit}
       C -3.26140e-01 -1.20025e-01  8.32279e-02
       O  8.35692e-01  2.63907e-01 -1.88801e-01
       H -1.01683e-01  8.36729e-01 -6.39114e-01
       H -4.40626e-01 -9.27160e-01  8.23641e-01
       L  6.45152e+01  5.07119e+00  4.22292e-01
       L -5.78594e+00  3.68009e+00  2.29080e+00
6
# CELL(abcABC):  459.05226   459.05226   459.05226    90.00000    90.00000    90.00000  Step:          24  Bead:       0 x_centroid{angstrom}  cell{atomic_unit}
       C -3.27315e-01 -1.19728e-01  8.29868e-02
       O  8.35957e-01  2.63763e-01 -1.88639e-01
       H -1.04593e-01  8.42049e-01 -6.45663e-01
       H -4.28295e-01 -9.33501e-01  8.30597e-01
       L  6.47925e+01  4.87099e+00  3.99381e-01
       L -5.36506e+00  3.43793e+00  2.14418e+00
6
# CELL(abcABC):  459.05226   459.05226   459.05226    90.00000    90.00000    90.00000  Step:          25  Bead:       0 x_centroid{angstrom}  cell{atomic_unit}
       C -3.28684e-01 -1.19155e-01  8.28886e-02
       O  8.36703e-01  2.63388e-01 -1.88488e-01
       H -1.11521e-01  8.45403e-01 -6.51950e-01
       H -4.17290e-01 -9.37426e-01  8.35741e-01
       L  6.50342e+01  4.60931e+00  3.98449e-01
       L -4.89187e+00  3.17033e+00  1.96687e+00
6
# CELL(abcABC):  459.05226   459.05226   459.05226    90.00000    90.00000    90.00000  Step:          26  Bead:       0 x_centroid{angstrom}  cell{atomic_unit}
       C -3.30180e-01 -1.18372e-01  8.26699e-02
       O  8.37791e-01  2.62989e-01 -1.88214e-01
       H -1.20440e-01  8.45782e-01 -6.56300e-01
       H -4.08244e-01 -9.40451e-01  8.38491e-01
       L  6.53062e+01  4.24836e+00  3.72464e-01
       L -4.38056e+00  2.87407e+00  1.75109e+00
6
# CELL(abcABC):  459.05226   459.05226   459.05226    90.00000    90.00000    90.00000  Step:          27  Bead:       0 x_centroid{angstrom}  cell{atomic_unit}
       C -3.31453e-01 -1.17786e-01  8.27364e-02
       O  8.38708e-01  2.62849e-01 -1.88128e-01
       H -1.29397e-01  8.43433e-01 -6.58377e-01
       H -3.99162e-01 -9.42470e-01  8.38534e-01
       L  6.56196e+01  3.85230e+00  3.74463e-01
       L -3.79412e+00  2.55869e+00  1.50221e+00
6
# CELL(abcABC):  459.05226   459.05226   459.05226    90.00000    90.00000    90.00000  Step:          28  Bead:       0 x_centroid{angstrom}  cell{atomic_unit}
       C -3.32689e-01 -1.17244e-01  8.28035e-02
       O  8.39357e-01  2.62811e-01 -1.88053e-01
       H -1.34598e-01  8.38911e-01 -6.60228e-01
       H -3.90055e-01 -9.43423e-01  8.38538e-01
       L  6.59584e+01  3.43879e+00  3.89253e-01
       L -3.16670e+00  2.26579e+00  1.23274e+00
6
# CELL(abcABC):  459.05226   459.05226   459.05226    90.00000    90.00000    90.00000  Step:          29  Bead:       0 x_centroid{angstrom}  cell{atomic_unit}
       C -3.33608e-01 -1.16858e-01  8.28317e-02
       O  8.39192e-01  2.62815e-01 -1.87995e-01
       H -1.32653e-01  8.32988e-01 -6.60619e-01
       H -3.79056e-01 -9.41749e-01  8.37849e-01
       L  6.63725e+01  2.96200e+00  3.14587e-01
       L -2.44781e+00  1.97935e+00  9.89017e-01
6
# CELL(abcABC):  459.05226   459.05226   459.05226    90.00000    90.00000    90.00000  Step:          30  Bead:       0 x_centroid{angstrom}  cell{atomic_unit}
       C -3.34064e-01 -1.16332e-01  8.27144e-02
       O  8.38418e-01  2.62696e-01 -1.87885e-01
       H -1.26707e-01  8.27728e-01 -6.60167e-01
       H -3.67875e-01 -9.40429e-01  8.37207e-01
       L  6.68033e+01  2.46554e+00  2.99781e-01
       L -1.77424e+00  1.67695e+00  7.17194e-01
6
# CELL(abcABC):  459.05226   459.05226   459.05226    90.00000    90.00000    90.00000  Step:          31  Bead:       0 x_centroid{angstrom}  cell{atomic_unit}
       C -3.34037e-01 -1.16194e-01  8.26681e-02
       O  8.37235e-01  2.62752e-01 -1.87867e-01
       H -1.19509e-01  8.22444e-01 -6.58807e-01
       H -3.57262e-01 -9.37246e-01  8.36280e-01
       L  6.72772e+01  1.95999e+00  2.62536e-01
       L -1.06559e+00  1.38917e+00  4.48565e-01
6
# CELL(abcABC):  459.05226   459.05226   459.05226    90.00000    90.00000    90.00000  Step:          32  Bead:       0 x_centroid{angstrom}  cell{atomic_unit}
       C -3.34073e-01 -1.15803e-01  8.26219e-02
       O  8.36318e-01  2.62605e-01 -1.87843e-01
       H -1.15144e-01  8.17413e-01 -6.57296e-01
       H -3.47303e-01 -9.34114e-01  8.35093e-01
       L  6.77432e+01  1.46896e+00  2.27191e-01
       L -3.18327e-01  1.06600e+00  2.03227e-01
6
# CELL(abcABC):  459.05226   459.05226   459.05226    90.00000    90.00000    90.00000  Step:          33  Bead:       0 x_centroid{angstrom}  cell{atomic_unit}
       C -3.34021e-01 -1.15422e-01  8.23476e-02
       O  8.35882e-01  2.62390e-01 -1.87703e-01
       H -1.17790e-01  8.13287e-01 -6.55256e-01
       H -3.39025e-01 -9.30685e-01  8.34261e-01
       L  6.81581e+01  1.01525e+00  1.52891e-01
       L  4.79746e-01  7.51166e-01 -2.78006e-02
6
# CELL(abcABC):  459.05226   459.05226   459.05226    90.00000    90.00000    90.00000  Step:          34  Bead:       0 x_centroid{angstrom}  cell{atomic_unit}
       C -3.33859e-01 -1.15174e-01  8.21661e-02
       O  8.35937e-01  2.62208e-01 -1.87572e-01
       H -1.28088e-01  8.10467e-01 -6.52892e-01
       H -3.32145e-01 -9.27535e-01  8.32161e-01
       L  6.85326e+01  5.74734e-01  7.40128e-02
       L  1.23839e+00  4.68617e-01 -2.79256e-01
6
# CELL(abcABC):  459.05226   459.05226   459.05226    90.00000    90.00000    90.00000  Step:          35  Bead:       0 x_centroid{angstrom}  cell{atomic_unit}
       C -3.33613e-01 -1.14973e-01  8.23074e-02
       O  8.36239e-01  2.61767e-01 -1.87527e-01
       H -1.42351e-01  8.10602e-01 -6.53993e-01
       H -3.26225e-01 -9.22673e-01  8.31037e-01
       L  6.88920e+01  5.54388e-02  1.68638e-03
       L  2.02162e+00  2.72266e-01 -5.39066e-01
6
# CELL(abcABC):  459.05226   459.05226   459.05226    90.00000    90.00000    90.00000  Step:          36  Bead:       0 x_centroid{angstrom}  cell{atomic_unit}
       C -3.33164e-01 -1.14685e-01  8.24727e-02
       O  8.36305e-01  2.61067e-01 -1.87544e-01
       H -1.53700e-01  8.14026e-01 -6.56225e-01
       H -3.21887e-01 -9.18051e-01  8.31773e-01
       L  6.92689e+01 -4.69953e-01 -8.80418e-02
       L  2.79650e+00  1.01638e-01 -8.02438e-01
6
# CELL(abcABC):  459.05226   459.05226   459.05226    90.00000    90.00000    90.00000  Step:          37  Bead:       0 x_centroid{angstrom}  cell{atomic_unit}
       C -3.32428e-01 -1.14517e-01  8.23916e-02
       O  8.35860e-01  2.60308e-01 -1.87450e-01
       H -1.60503e-01  8.21202e-01 -6.58279e-01
       H -3.17454e-01 -9.14839e-01  8.33513e-01
       L  6.97092e+01 -1.00939e+00 -1.50787e-01
       L  3.55631e+00  2.26233e-02 -1.12967e+00
6
# CELL(abcABC):  459.05226   459.05226   459.05226    90.00000    90.00000    90.00000  Step:          38  Bead:       0 x_centroid{angstrom}  cell{atomic_unit}
       C -3.31222e-01 -1.14285e-01  8.22604e-02
       O  8.34656e-01  2.59436e-01 -1.87379e-01
       H -1.60491e-01  8.30804e-01 -6.60735e-01
       H -3.13406e-01 -9.13009e-01  8.36588e-01
       L  7.02553e+01 -1.57787e+00 -1.94397e-01
       L  4.25999e+00 -4.31873e-02 -1.44458e+00
6
# CELL(abcABC):  459.05226   459.05226   459.05226    90.00000    90.00000    90.00000  Step:          39  Bead:       0 x_centroid{angstrom}  cell{atomic_unit}
       C -3.29643e-01 -1.14317e-01  8.21139e-02
       O  8.33013e-01  2.58733e-01 -1.87430e-01
       H -1.57954e-01  8.40389e-01 -6.62624e-01
       H -3.09409e-01 -9.10739e-01  8.41226e-01
       L  7.08946e+01 -2.15513e+00 -2.47861e-01
       L  4.97635e+00 -6.26052e-02 -1.73154e+00
6
# CELL(abcABC):  459.05226   459.05226   459.05226    90.00000    90.00000    90.00000  Step:          40  Bead:       0 x_centroid{angstrom}  cell{atomic_unit}
       C -3.28042e-01 -1.14188e-01  8.18228e-02
       O  8.31559e-01  2.57996e-01 -1.87383e-01
       H -1.56812e-01  8.48572e-01 -6.63831e-01
       H -3.07275e-01 -9.08446e-01  8.45349e-01
       L  7.15178e+01 -2.69004e+00 -2.99153e-01
       L  5.65493e+00 -1.00444e-01 -2.04123e+00
6
# CELL(abcABC):  459.05226   459.05226   459.05226    90.00000    90.00000    90.00000  Step:          41  Bead:       0 x_centroid{angstrom}  cell{atomic_unit}
       C -3.26071e-01 -1.14153e-01  8.14654e-02
       O  8.30332e-01  2.57528e-01 -1.87320e-01
       H -1.61039e-01  8.51446e-01 -6.64477e-01
       H -3.07703e-01 -9.04020e-01  8.49450e-01
       L  7.20701e+01 -3.19808e+00 -3.24109e-01
       L  6.31512e+00 -1.26375e-01 -2.38138e+00
6
# CELL(abcABC):  459.05226   459.05226   459.05226    90.00000    90.00000    90.00000  Step:          42  Bead:       0 x_centroid{angstrom}  cell{atomic_unit}
       C -3.24162e-01 -1.13864e-01  8.10689e-02
       O  8.29652e-01  2.57068e-01 -1.87189e-01
       H -1.69938e-01  8.50502e-01 -6.64471e-01
       H -3.11366e-01 -8.98895e-01  8.52273e-01
       L  7.26215e+01 -3.71584e+00 -3.36075e-01
       L  6.87351e+00 -1.98134e-01 -2.71412e+00
6
# CELL(abcABC):  459.05226   459.05226   459.05226    90.00000    90.00000    90.00000  Step:          43  Bead:       0 x_centroid{angstrom}  cell{atomic_unit}
       C -3.22304e-01 -1.13778e-01  8.05920e-02
       O  8.29439e-01  2.56984e-01 -1.87086e-01
       H -1.83043e-01  8.46217e-01 -6.63222e-01
       H -3.17556e-01 -8.94019e-01  8.55251e-01
       L  7.31591e+01 -4.22053e+00 -2.90069e-01
       L  7.33718e+00 -2.10073e-01 -3.06345e+00
6
# CELL(abcABC):  459.05226   459.05226   459.05226    90.00000    90.00000    90.00000  Step:          44  Bead:       0 x_centroid{angstrom}  cell{atomic_unit}
       C -3.20493e-01 -1.13525e-01  7.97862e-02
       O  8.29261e-01  2.56923e-01 -1.87015e-01
       H -1.94307e-01  8.39910e-01 -6.58223e-01
       H -3.25568e-01 -8.89508e-01  8.58829e-01
       L  7.37162e+01 -4.65268e+00 -1.23858e-01
       L  7.70670e+00 -2.37234e-01 -3.41492e+00
6
# CELL(abcABC):  459.05226   459.05226   459.05226    90.00000    90.00000    90.00000  Step:          45  Bead:       0 x_centroid{angstrom}  cell{atomic_unit}
       C -3.18295e-01 -1.12941e-01  7.91127e-02
       O  8.28556e-01  2.56720e-01 -1.87241e-01
       H -2.01610e-01  8.33844e-01 -6.52347e-01
       H -3.33735e-01 -8.86972e-01  8.64636e-01
       L  7.42904e+01 -5.03529e+00  5.10446e-02
       L  7.99934e+00 -2.37022e-01 -3.73295e+00
6
# CELL(abcABC):  459.05226   459.05226   459.05226    90.00000    90.00000    90.00000  Step:          46  Bead:       0 x_centroid{angstrom}  cell{atomic_unit}
       C -3.15502e-01 -1.12137e-01  7.84781e-02
       O  8.27075e-01  2.56430e-01 -1.87663e-01
       H -2.03849e-01  8.28250e-01 -6.45877e-01
       H -3.41682e-01 -8.86194e-01  8.72515e-01
       L  7.48606e+01 -5.36257e+00  2.69226e-01
       L  8.20068e+00 -2.22060e-01 -4.10490e+00
6
# CELL(abcABC):  459.05226   459.05226   459.05226    90.00000    90.00000    90.00000  Step:          47  Bead:       0 x_centroid{angstrom}  cell{atomic_unit}
       C -3.12284e-01 -1.11137e-01  7.78278e-02
       O  8.24974e-01  2.55893e-01 -1.88170e-01
       H -2.01170e-01  8.24231e-01 -6.38788e-01
       H -3.49772e-01 -8.85422e-01  8.81294e-01
       L  7.55370e+01 -5.62049e+00  4.73790e-01
       L  8.27000e+00 -2.12460e-01 -4.45840e+00
6
# CELL(abcABC):  459.05226   459.05226   459.05226    90.00000    90.00000    90.00000  Step:          48  Bead:       0 x_centroid{angstrom}  cell{atomic_unit}
       C -3.09123e-01 -1.10155e-01  7.70530e-02
       O  8.22831e-01  2.55292e-01 -1.88626e-01
       H -1.97400e-01  8.21073e-01 -6.32314e-01
       H -3.57579e-01 -8.84302e-01  8.91353e-01
       L  7.62386e+01 -5.86699e+00  6.57589e-01
       L  8.27638e+00 -1.95459e-01 -4.74491e+00
6
# CELL(abcABC):  459.05226   459.05226   459.05226    90.00000    90.00000    90.00000  Step:          49  Bead:       0 x_centroid{angstrom}  cell{atomic_unit}
       C -3.06133e-01 -1.09124e-01  7.65487e-02
       O  8.21098e-01  2.54527e-01 -1.89275e-01
       H -1.96792e-01  8.19011e-01 -6.26097e-01
       H -3.66672e-01 -8.82302e-01  9.01467e-01
       L  7.69444e+01 -6.08728e+00  8.56657e-01
       L  8.23357e+00 -1.37921e-01 -4.99403e+00
6
# CELL(abcABC):  459.05226   459.05226   459.05226    90.00000    90.00000    90.00000  Step:          50  Bead:       0 x_centroid{angstrom}  cell{atomic_unit}
       C -3.03332e-01 -1.08053e-01  7.64378e-02
       O  8.19914e-01  2.53476e-01 -1.90164e-01
       H -2.01781e-01  8.19287e-01 -6.20902e-01
       H -3.76570e-01 -8.78640e-01  9.11671e-01
       L  7.76576e+01 -6.25063e+00  1.05447e+00
       L  8.09545e+00  3.50749e-03 -5.12366e+00
6
# CELL(abcABC):  459.05226   459.05226   459.05226    90.00000    90.00000    90.00000  Step:          51  Bead:       0 x_centroid{angstrom}  cell{atomic_unit}
       C -3.00955e-01 -1.06867e-01  7.67469e-02
       O  8.19576e-01  2.52264e-01 -1.91170e-01
       H -2.13782e-01  8.19966e-01 -6.17638e-01
       H -3.87810e-01 -8.74241e-01  9.20620e-01
       L  7.83896e+01 -6.32512e+00  1.29206e+00
       L  7.89602e+00  1.44692e-01 -5.23704e+00
6
# CELL(abcABC):  459.05226   459.05226   459.05226    90.00000    90.00000    90.00000  Step:          52  Bead:       0 x_centroid{angstrom}  cell{atomic_unit}
       C -2.98486e-01 -1.05589e-01  7.72768e-02
       O  8.19536e-01  2.50770e-01 -1.92146e-01
       H -2.30260e-01  8.22658e-01 -6.15504e-01
       H -4.00365e-01 -8.68545e-01  9.27554e-01
       L  7.91456e+01 -6.31946e+00  1.47992e+00
       L  7.57319e+00  3.17761e-01 -5.21902e+00
6
# CELL(abcABC):  459.05226   459.05226   459.05226    90.00000    90.00000    90.00000  Step:          53  Bead:       0 x_centroid{angstrom}  cell{atomic_unit}
       C -2.96174e-01 -1.04293e-01  7.78391e-02
       O  8.19604e-01  2.49112e-01 -1.93120e-01
       H -2.47836e-01  8.26825e-01 -6.13873e-01
       H -4.11669e-01 -8.61992e-01  9.34583e-01
       L  7.99712e+01 -6.26457e+00  1.64822e+00
       L  7.21170e+00  5.18992e-01 -5.19849e+00
6
# CELL(abcABC):  459.05226   459.05226   459.05226    90.00000    90.00000    90.00000  Step:          54  Bead:       0 x_centroid{angstrom}  cell{atomic_unit}
       C -2.93887e-01 -1.03175e-01  7.83344e-02
       O  8.19561e-01  2.47328e-01 -1.94136e-01
       H -2.64092e-01  8.33865e-01 -6.12476e-01
       H -4.22227e-01 -8.54208e-01  9.43312e-01
       L  8.08675e+01 -6.20341e+00  1.78501e+00
       L  6.77106e+00  8.10407e-01 -5.13822e+00
6
# CELL(abcABC):  459.05226   459.05226   459.05226    90.00000    90.00000    90.00000  Step:          55  Bead:       0 x_centroid{angstrom}  cell{atomic_unit}
       C -2.91371e-01 -1.01959e-01  7.87519e-02
       O  8.19057e-01  2.45297e-01 -1.95132e-01
       H -2.77032e-01  8.42189e-01 -6.11364e-01
       H -4.31563e-01 -8.45048e-01  9.52902e-01
       L  8.18663e+01 -6.07062e+00  1.91450e+00
       L  6.30365e+00  1.14125e+00 -5.02406e+00
6
# CELL(abcABC):  459.05226   459.05226   459.05226    90.00000    90.00000    90.00000  Step:          56  Bead:       0 x_centroid{angstrom}  cell{atomic_unit}
       C -2.88567e-01 -1.00783e-01  7.91965e-02
       O  8.18051e-01  2.43271e-01 -1.96241e-01
       H -2.87693e-01  8.51675e-01 -6.10819e-01
       H -4.38662e-01 -8.36687e-01  9.64524e-01
       L  8.29325e+01 -5.86915e+00  2.00899e+00
       L  5.81214e+00  1.50226e+00 -4.85932e+00
6
# CELL(abcABC):  459.05226   459.05226   459.05226    90.00000    90.00000    90.00000  Step:          57  Bead:       0 x_centroid{angstrom}  cell{atomic_unit}
       C -2.85406e-01 -9.93096e-02  7.95273e-02
       O  8.16647e-01  2.41004e-01 -1.97329e-01
       H -2.98324e-01  8.61921e-01 -6.09060e-01
       H -4.43655e-01 -8.28823e-01  9.75940e-01
       L  8.40378e+01 -5.68242e+00  2.05094e+00
       L  5.17569e+00  1.89156e+00 -4.63081e+00
6
# CELL(abcABC):  459.05226   459.05226   459.05226    90.00000    90.00000    90.00000  Step:          58  Bead:       0 x_centroid{angstrom}  cell{atomic_unit}
       C -2.82015e-01 -9.76119e-02  7.97833e-02
       O  8.15105e-01  2.38441e-01 -1.98324e-01
       H -3.10338e-01  8.72039e-01 -6.06812e-01
       H -4.47851e-01 -8.18833e-01  9.86318e-01
       L  8.51962e+01 -5.43845e+00  1.99619e+00
       L  4.53763e+00  2.27389e+00 -4.34659e+00
6
# CELL(abcABC):  459.05226   459.05226   459.05226    90.00000    90.00000    90.00000  Step:          59  Bead:       0 x_centroid{angstrom}  cell{atomic_unit}
       C -2.78443e-01 -9.56300e-02  7.99723e-02
       O  8.13585e-01  2.35570e-01 -1.99444e-01
       H -3.26334e-01  8.81239e-01 -6.01296e-01
       H -4.50555e-01 -8.06420e-01  9.96212e-01
       L  8.63726e+01 -5.17526e+00  1.93280e+00
       L  3.84708e+00  2.65114e+00 -4.07519e+00
6
# CELL(abcABC):  459.05226   459.05226   459.05226    90.00000    90.00000    90.00000  Step:          60  Bead:       0 x_centroid{angstrom}  cell{atomic_unit}
       C -2.74897e-01 -9.32745e-02  7.98345e-02
       O  8.12230e-01  2.32347e-01 -2.00320e-01
       H -3.45134e-01  8.89162e-01 -5.94554e-01
       H -4.52761e-01 -7.91644e-01  1.00488e+00
       L  8.76206e+01 -4.88915e+00  1.84417e+00
       L  3.07718e+00  3.07644e+00 -3.75057e+00
6
# CELL(abcABC):  459.05226   459.05226   459.05226    90.00000    90.00000    90.00000  Step:          61  Bead:       0 x_centroid{angstrom}  cell{atomic_unit}
       C -2.71485e-01 -9.07478e-02  7.94619e-02
       O  8.11198e-01  2.29007e-01 -2.01054e-01
       H -3.67770e-01  8.96029e-01 -5.85336e-01
       H -4.54777e-01 -7.76019e-01  1.01161e+00
       L  8.90562e+01 -4.51387e+00  1.71921e+00
       L  2.32157e+00  3.46663e+00 -3.37155e+00
6
# CELL(abcABC):  459.05226   459.05226   459.05226    90.00000    90.00000    90.00000  Step:          62  Bead:       0 x_centroid{angstrom}  cell{atomic_unit}
       C -2.67927e-01 -8.79079e-02  7.90272e-02
       O  8.10417e-01  2.25320e-01 -2.01848e-01
       H -3.97079e-01  9.02086e-01 -5.73971e-01
       H -4.55829e-01 -7.57803e-01  1.01779e+00
       L  9.05306e+01 -4.10775e+00  1.68153e+00
       L  1.50545e+00  3.83062e+00 -2.87677e+00
6
# CELL(abcABC):  459.05226   459.05226   459.05226    90.00000    90.00000    90.00000  Step:          63  Bead:       0 x_centroid{angstrom}  cell{atomic_unit}
       C -2.64591e-01 -8.46753e-02  7.84519e-02
       O  8.09954e-01  2.21375e-01 -2.02591e-01
       H -4.30411e-01  9.06551e-01 -5.60566e-01
       H -4.55300e-01 -7.38639e-01  1.02279e+00
       L  9.20893e+01 -3.70697e+00  1.59049e+00
       L  6.85647e-01  4.27951e+00 -2.33595e+00
6
# CELL(abcABC):  459.05226   459.05226   459.05226    90.00000    90.00000    90.00000  Step:          64  Bead:       0 x_centroid{angstrom}  cell{atomic_unit}
       C -2.61237e-01 -8.06999e-02  7.75359e-02
       O  8.09676e-01  2.16983e-01 -2.03343e-01
       H -4.67796e-01  9.07629e-01 -5.44060e-01
       H -4.53920e-01 -7.17902e-01  1.02890e+00
       L  9.37693e+01 -3.22171e+00  1.50535e+00
       L -1.78088e-01  4.77629e+00 -1.82587e+00
6
# CELL(abcABC):  459.05226   459.05226   459.05226    90.00000    90.00000    90.00000  Step:          65  Bead:       0 x_centroid{angstrom}  cell{atomic_unit}
       C -2.57506e-01 -7.57839e-02  7.58963e-02
       O  8.09347e-01  2.11957e-01 -2.03815e-01
       H -5.10006e-01  9.06587e-01 -5.24680e-01
       H -4.51415e-01 -6.96225e-01  1.03633e+00
       L  9.55669e+01 -2.77088e+00  1.36578e+00
       L -1.10563e+00  5.36063e+00 -1.28426e+00
6
# CELL(abcABC):  459.05226   459.05226   459.05226    90.00000    90.00000    90.00000  Step:          66  Bead:       0 x_centroid{angstrom}  cell{atomic_unit}
       C -2.53565e-01 -7.01853e-02  7.38520e-02