6
# CELL(abcABC):  459.05226   459.05226   459.05226    90.00000    90.00000    90.00000  Step:           0  Bead:       0 x_centroid{angstrom}  cell{atomic_unit}
       C -3.39887e-01 -1.13437e-01  8.06659e-02
       O  8.43483e-01  2.62672e-01 -1.81512e-01
       H -7.35799e-02  8.16467e-01 -6.61432e-01
       H -4.30016e-01 -9.65701e-01  7.62278e-01
       L  6.13458e+01  0.00000e+00  0.00000e+00
       L  0.00000e+00  8.59064e+00  0.00000e+00
6
# CELL(abcABC):  459.05226   459.05226   459.05226    90.00000    90.00000    90.00000  Step:           1  Bead:       0 x_centroid{angstrom}  cell{atomic_unit}
       C -3.39326e-01 -1.12748e-01  8.41959e-02
       O  8.43070e-01  2.61389e-01 -1.83969e-01
       H -7.59434e-02  8.33597e-01 -6.63910e-01
       H -4.27685e-01 -9.70545e-01  7.61556e-01
       L  6.12877e+01  7.98860e-03 -1.39767e-02
       L -1.14581e-01  8.34259e+00  2.60424e-01
6
# CELL(abcABC):  459.05226   459.05226   459.05226    90.00000    90.00000    90.00000  Step:           2  Bead:       0 x_centroid{angstrom}  cell{atomic_unit}
       C -3.38967e-01 -1.11900e-01  8.79013e-02
       O  8.42908e-01  2.60225e-01 -1.86578e-01
       H -7.90152e-02  8.48055e-01 -6.64631e-01
       H -4.26202e-01 -9.76469e-01  7.59377e-01
       L  6.12036e+01 -4.74765e-02 -3.64314e-02
       L -2.40965e-01  8.10717e+00  5.57793e-01
6
# CELL(abcABC):  459.05226   459.05226   459.05226    90.00000    90.00000    90.00000  Step:           3  Bead:       0 x_centroid{angstrom}  cell{atomic_unit}
       C -3.38942e-01 -1.10685e-01  9.15570e-02
       O  8.43026e-01  2.58975e-01 -1.89118e-01
       H -8.14560e-02  8.58764e-01 -6.64075e-01
       H -4.25793e-01 -9.81676e-01  7.55447e-01
       L  6.11247e+01 -8.69296e-02 -2.67272e-02
       L -4.06345e-01  7.87033e+00  8.11769e-01
6
# CELL(abcABC):  459.05226   459.05226   459.05226    90.00000    90.00000    90.00000  Step:           4  Bead:       0 x_centroid{angstrom}  cell{atomic_unit}
       C -3.39172e-01 -1.09449e-01  9.49890e-02
       O  8.43344e-01  2.58044e-01 -1.91447e-01
       H -8.35971e-02  8.63476e-01 -6.61555e-01
       H -4.25863e-01 -9.86127e-01  7.48914e-01
       L  6.10695e+01 -1.98446e-01 -9.22490e-02
       L -5.62228e-01  7.61045e+00  1.01788e+00
6
# CELL(abcABC):  459.05226   459.05226   459.05226    90.00000    90.00000    90.00000  Step:           5  Bead:       0 x_centroid{angstrom}  cell{atomic_unit}
       C -3.39553e-01 -1.08217e-01  9.84099e-02
       O  8.43673e-01  2.57358e-01 -1.93793e-01
       H -8.46296e-02  8.63062e-01 -6.56589e-01
       H -4.25401e-01 -9.89303e-01  7.40356e-01
       L  6.10572e+01 -3.06557e-01 -1.35511e-01
       L -7.24371e-01  7.33570e+00  1.17829e+00
6
# CELL(abcABC):  459.05226   459.05226   459.05226    90.00000    90.00000    90.00000  Step:           6  Bead:       0 x_centroid{angstrom}  cell{atomic_unit}
       C -3.39891e-01 -1.07073e-01  1.01872e-01
       O  8.43787e-01  2.56962e-01 -1.96314e-01
       H -8.36644e-02  8.59123e-01 -6.48843e-01
       H -4.24008e-01 -9.92508e-01  7.31298e-01
       L  6.09981e+01 -3.86205e-01 -1.62392e-01
       L -9.36763e-01  7.03499e+00  1.34792e+00
6
# CELL(abcABC):  459.05226   459.05226   459.05226    90.00000    90.00000    90.00000  Step:           7  Bead:       0 x_centroid{angstrom}  cell{atomic_unit}
       C -3.40464e-01 -1.05864e-01  1.05327e-01
       O  8.43793e-01  2.56592e-01 -1.98881e-01
       H -7.93087e-02  8.53962e-01 -6.40158e-01
       H -4.21500e-01 -9.95675e-01  7.22103e-01
       L  6.09597e+01 -4.98272e-01 -1.63198e-01
       L -1.15207e+00  6.76987e+00  1.51929e+00
6
# CELL(abcABC):  459.05226   459.05226   459.05226    90.00000    90.00000    90.00000  Step:           8  Bead:       0 x_centroid{angstrom}  cell{atomic_unit}
       C -3.40818e-01 -1.04620e-01  1.08606e-01
       O  8.43440e-01  2.56190e-01 -2.01320e-01
       H -7.19563e-02  8.48999e-01 -6.31760e-01
       H -4.18923e-01 -9.98941e-01  7.13254e-01
       L  6.09059e+01 -5.91368e-01 -1.53717e-01
       L -1.28939e+00  6.47118e+00  1.68380e+00
6
# CELL(abcABC):  459.05226   459.05226   459.05226    90.00000    90.00000    90.00000  Step:           9  Bead:       0 x_centroid{angstrom}  cell{atomic_unit}
       C -3.40938e-01 -1.03016e-01  1.11561e-01
       O  8.42983e-01  2.55544e-01 -2.03587e-01
       H -6.46560e-02  8.44928e-01 -6.23112e-01
       H -4.17439e-01 -1.00352e+00  7.05303e-01
       L  6.08369e+01 -6.86963e-01 -1.48723e-01
       L -1.41023e+00  6.20018e+00  1.81440e+00
6
# CELL(abcABC):  459.05226   459.05226   459.05226    90.00000    90.00000    90.00000  Step:          10  Bead:       0 x_centroid{angstrom}  cell{atomic_unit}
       C -3.41099e-01 -1.00966e-01  1.14161e-01
       O  8.42801e-01  2.54502e-01 -2.05814e-01
       H -6.02648e-02  8.42965e-01 -6.13841e-01
       H -4.16854e-01 -1.00929e+00  7.00332e-01
       L  6.06753e+01 -7.74474e-01 -1.31954e-01
       L -1.53754e+00  5.98954e+00  1.93071e+00
6
# CELL(abcABC):  459.05226   459.05226   459.05226    90.00000    90.00000    90.00000  Step:          11  Bead:       0 x_centroid{angstrom}  cell{atomic_unit}
       C -3.41445e-01 -9.92108e-02  1.16301e-01
       O  8.42927e-01  2.53424e-01 -2.07885e-01
       H -5.94065e-02  8.46292e-01 -6.05133e-01
       H -4.15406e-01 -1.01631e+00  6.98944e-01
       L  6.04672e+01 -8.48787e-01 -7.95431e-02
       L -1.66589e+00  5.85224e+00  1.95505e+00
6
# CELL(abcABC):  459.05226   459.05226   459.05226    90.00000    90.00000    90.00000  Step:          12  Bead:       0 x_centroid{angstrom}  cell{atomic_unit}
       C -3.41727e-01 -9.72717e-02  1.18079e-01
       O  8.43289e-01  2.52202e-01 -2.09664e-01
       H -6.22648e-02  8.51455e-01 -5.97124e-01
       H -4.14738e-01 -1.02506e+00  6.97943e-01
       L  6.02138e+01 -9.01355e-01 -5.09528e-02
       L -1.77509e+00  5.69613e+00  2.01521e+00
6
# CELL(abcABC):  459.05226   459.05226   459.05226    90.00000    90.00000    90.00000  Step:          13  Bead:       0 x_centroid{angstrom}  cell{atomic_unit}
       C -3.41859e-01 -9.50519e-02  1.19753e-01
       O  8.43700e-01  2.50492e-01 -2.11399e-01
       H -6.66943e-02  8.61593e-01 -5.89243e-01
       H -4.15083e-01 -1.03445e+00  6.97631e-01
       L  5.99735e+01 -8.82383e-01 -1.76599e-02
       L -1.86164e+00  5.56251e+00  2.04700e+00
6
# CELL(abcABC):  459.05226   459.05226   459.05226    90.00000    90.00000    90.00000  Step:          14  Bead:       0 x_centroid{angstrom}  cell{atomic_unit}
       C -3.42095e-01 -9.28788e-02  1.21030e-01
       O  8.44123e-01  2.48674e-01 -2.12804e-01
       H -7.03351e-02  8.73197e-01 -5.82262e-01
       H -4.15129e-01 -1.04303e+00  6.97717e-01
       L  5.96421e+01 -8.46055e-01  2.65352e-02
       L -1.93480e+00  5.41989e+00  2.02643e+00
6
# CELL(abcABC):  459.05226   459.05226   459.05226    90.00000    90.00000    90.00000  Step:          15  Bead:       0 x_centroid{angstrom}  cell{atomic_unit}
       C -3.41879e-01 -9.04191e-02  1.22341e-01
       O  8.44160e-01  2.46471e-01 -2.14148e-01
       H -7.32840e-02  8.86497e-01 -5.76046e-01
       H -4.15113e-01 -1.05058e+00  6.97219e-01
       L  5.92936e+01 -8.43272e-01  9.73020e-02
       L -2.01032e+00  5.25909e+00  1.93501e+00
6
# CELL(abcABC):  459.05226   459.05226   459.05226    90.00000    90.00000    90.00000  Step:          16  Bead:       0 x_centroid{angstrom}  cell{atomic_unit}
       C -3.41339e-01 -8.81876e-02  1.23833e-01
       O  8.43827e-01  2.44270e-01 -2.15483e-01
       H -7.48107e-02  8.99574e-01 -5.71329e-01
       H -4.14551e-01 -1.05524e+00  6.95934e-01
       L  5.89850e+01 -8.34128e-01  1.76817e-01
       L -2.04643e+00  5.11815e+00  1.82148e+00
6
# CELL(abcABC):  459.05226   459.05226   459.05226    90.00000    90.00000    90.00000  Step:          17  Bead:       0 x_centroid{angstrom}  cell{atomic_unit}
       C -3.40667e-01 -8.61194e-02  1.25266e-01
       O  8.43213e-01  2.42109e-01 -2.16734e-01
       H -7.30744e-02  9.10843e-01 -5.64875e-01
       H -4.14376e-01 -1.05684e+00  6.92303e-01
       L  5.87050e+01 -8.19053e-01  2.14932e-01
       L -2.04445e+00  5.05662e+00  1.70505e+00
6
# CELL(abcABC):  459.05226   459.05226   459.05226    90.00000    90.00000    90.00000  Step:          18  Bead:       0 x_centroid{angstrom}  cell{atomic_unit}
       C -3.39896e-01 -8.41519e-02  1.26826e-01
       O  8.42414e-01  2.40059e-01 -2.18094e-01
       H -6.90319e-02  9.18766e-01 -5.56555e-01
       H -4.14819e-01 -1.05561e+00  6.86981e-01
       L  5.84005e+01 -8.10248e-01  2.54616e-01
       L -1.95984e+00  4.95107e+00  1.65617e+00
6
# CELL(abcABC):  459.05226   459.05226   459.05226    90.00000    90.00000    90.00000  Step:          19  Bead:       0 x_centroid{angstrom}  cell{atomic_unit}
       C -3.39352e-01 -8.22022e-02  1.28658e-01
       O  8.41726e-01  2.38252e-01 -2.19637e-01
       H -6.40024e-02  9.21557e-01 -5.45999e-01
       H -4.15293e-01 -1.05289e+00  6.79065e-01
       L  5.81415e+01 -7.79742e-01  3.25127e-01
       L -1.89861e+00  4.81812e+00  1.61863e+00
6
# CELL(abcABC):  459.05226   459.05226   459.05226    90.00000    90.00000    90.00000  Step:          20  Bead:       0 x_centroid{angstrom}  cell{atomic_unit}
       C -3.39138e-01 -8.04094e-02  1.30552e-01
       O  8.41384e-01  2.36527e-01 -2.21194e-01
       H -5.89501e-02  9.22447e-01 -5.34609e-01
       H -4.17355e-01 -1.04769e+00  6.69821e-01
       L  5.78936e+01 -7.15688e-01  3.65523e-01
       L -1.86033e+00  4.64138e+00  1.58611e+00
6
# CELL(abcABC):  459.05226   459.05226   459.05226    90.00000    90.00000    90.00000  Step:          21  Bead:       0 x_centroid{angstrom}  cell{atomic_unit}
       C -3.39194e-01 -7.86258e-02  1.32384e-01
       O  8.41297e-01  2.34828e-01 -2.22660e-01
       H -5.42711e-02  9.21326e-01 -5.23063e-01
       H -4.19887e-01 -1.04079e+00  6.59723e-01
       L  5.76556e+01 -6.53881e-01  3.98513e-01
       L -1.79862e+00  4.41904e+00  1.53402e+00
6
# CELL(abcABC):  459.05226   459.05226   459.05226    90.00000    90.00000    90.00000  Step:          22  Bead:       0 x_centroid{angstrom}  cell{atomic_unit}
       C -3.39132e-01 -7.68797e-02  1.34358e-01
       O  8.41044e-01  2.33106e-01 -2.24289e-01
       H -4.89674e-02  9.20029e-01 -5.11572e-01
       H -4.21863e-01 -1.03290e+00  6.50590e-01
       L  5.74486e+01 -5.52324e-01  3.82626e-01
       L -1.68512e+00  4.21613e+00  1.51907e+00
6
# CELL(abcABC):  459.05226   459.05226   459.05226    90.00000    90.00000    90.00000  Step:          23  Bead:       0 x_centroid{angstrom}  cell{atomic_unit}
       C -3.39349e-01 -7.52650e-02  1.35915e-01
       O  8.40934e-01  2.31509e-01 -2.25711e-01
       H -4.37312e-02  9.19022e-01 -5.00409e-01
       H -4.22750e-01 -1.02574e+00  6.43454e-01
       L  5.72370e+01 -4.34583e-01  4.12832e-01
       L -1.52267e+00  4.03311e+00  1.46292e+00
6
# CELL(abcABC):  459.05226   459.05226   459.05226    90.00000    90.00000    90.00000  Step:          24  Bead:       0 x_centroid{angstrom}  cell{atomic_unit}
       C -3.40103e-01 -7.35179e-02  1.37532e-01
       O  8.41090e-01  2.29774e-01 -2.27252e-01
       H -3.62252e-02  9.19498e-01 -4.89579e-01
       H -4.23743e-01 -1.01945e+00  6.37868e-01
       L  5.70353e+01 -3.37219e-01  4.52528e-01
       L -1.30649e+00  3.82924e+00  1.34945e+00
6
# CELL(abcABC):  459.05226   459.05226   459.05226    90.00000    90.00000    90.00000  Step:          25  Bead:       0 x_centroid{angstrom}  cell{atomic_unit}
       C -3.41160e-01 -7.14672e-02  1.39151e-01
       O  8.41506e-01  2.27690e-01 -2.28813e-01
       H -2.89295e-02  9.24354e-01 -4.80256e-01
       H -4.25090e-01 -1.01560e+00  6.34117e-01
       L  5.68157e+01 -2.45091e-01  4.22941e-01
       L -1.03014e+00  3.64155e+00  1.21932e+00
6
# CELL(abcABC):  459.05226   459.05226   459.05226    90.00000    90.00000    90.00000  Step:          26  Bead:       0 x_centroid{angstrom}  cell{atomic_unit}
       C -3.42366e-01 -6.91478e-02  1.40387e-01
       O  8.42113e-01  2.25248e-01 -2.30159e-01
       H -2.25500e-02  9.33668e-01 -4.71524e-01
       H -4.26764e-01 -1.01377e+00  6.32055e-01
       L  5.65906e+01 -1.06967e-01  4.17241e-01
       L -7.49172e-01  3.46332e+00  1.13743e+00
6
# CELL(abcABC):  459.05226   459.05226   459.05226    90.00000    90.00000    90.00000  Step:          27  Bead:       0 x_centroid{angstrom}  cell{atomic_unit}
       C -3.43833e-01 -6.66594e-02  1.41501e-01
       O  8.43038e-01  2.22602e-01 -2.31592e-01
       H -1.69683e-02  9.45955e-01 -4.63095e-01
       H -4.29540e-01 -1.01371e+00  6.33195e-01
       L  5.63150e+01  1.05012e-02  3.99029e-01
       L -4.73300e-01  3.35056e+00  9.91833e-01
6
# CELL(abcABC):  459.05226   459.05226   459.05226    90.00000    90.00000    90.00000  Step:          28  Bead:       0 x_centroid{angstrom}  cell{atomic_unit}
       C -3.45172e-01 -6.40934e-02  1.42508e-01
       O  8.44070e-01  2.19937e-01 -2.32890e-01
       H -1.23207e-02  9.59764e-01 -4.55228e-01
       H -4.34625e-01 -1.01575e+00  6.33985e-01
       L  5.60548e+01  7.87019e-02  3.76190e-01
       L -1.92411e-01  3.20659e+00  9.10286e-01
6
# CELL(abcABC):  459.05226   459.05226   459.05226    90.00000    90.00000    90.00000  Step:          29  Bead:       0 x_centroid{angstrom}  cell{atomic_unit}
       C -3.46694e-01 -6.12828e-02  1.43744e-01
       O  8.45327e-01  2.17244e-01 -2.34259e-01
       H -8.16978e-03  9.73336e-01 -4.47927e-01
       H -4.40571e-01 -1.02001e+00  6.33745e-01
       L  5.57275e+01  1.59178e-01  3.30407e-01
       L  9.13943e-02  2.99459e+00  8.49345e-01
6
# CELL(abcABC):  459.05226   459.05226   459.05226    90.00000    90.00000    90.00000  Step:          30  Bead:       0 x_centroid{angstrom}  cell{atomic_unit}
       C -3.48412e-01 -5.86353e-02  1.44853e-01
       O  8.46666e-01  2.14777e-01 -2.35559e-01
       H -3.26990e-03  9.85217e-01 -4.40375e-01
       H -4.46249e-01 -1.02417e+00  6.33685e-01
       L  5.54142e+01  2.65991e-01  2.86608e-01
       L  3.94484e-01  2.71375e+00  7.58282e-01
6
# CELL(abcABC):  459.05226   459.05226   459.05226    90.00000    90.00000    90.00000  Step:          31  Bead:       0 x_centroid{angstrom}  cell{atomic_unit}
       C -3.50146e-01 -5.59689e-02  1.45598e-01
       O  8.47989e-01  2.12600e-01 -2.36589e-01
       H  1.44787e-03  9.92490e-01 -4.32314e-01
       H -4.51327e-01 -1.02852e+00  6.33175e-01
       L  5.51155e+01  3.60734e-01  2.63294e-01
       L  7.18281e-01  2.36321e+00  6.57174e-01
6
# CELL(abcABC):  459.05226   459.05226   459.05226    90.00000    90.00000    90.00000  Step:          32  Bead:       0 x_centroid{angstrom}  cell{atomic_unit}
       C -3.51753e-01 -5.34897e-02  1.46518e-01
       O  8.49360e-01  2.10704e-01 -2.37781e-01
       H  5.63877e-03  9.96717e-01 -4.23041e-01
       H -4.58152e-01 -1.03200e+00  6.31976e-01
       L  5.48508e+01  4.33041e-01  2.07975e-01
       L  1.02609e+00  1.93561e+00  5.06722e-01
6
# CELL(abcABC):  459.05226   459.05226   459.05226    90.00000    90.00000    90.00000  Step:          33  Bead:       0 x_centroid{angstrom}  cell{atomic_unit}
       C -3.52949e-01 -5.12907e-02  1.47611e-01
       O  8.50384e-01  2.09249e-01 -2.38954e-01
       H  1.10280e-02  9.96685e-01 -4.13418e-01
       H -4.65569e-01 -1.03485e+00  6.28080e-01
       L  5.45668e+01  4.88716e-01  1.45351e-01
       L  1.36762e+00  1.47386e+00  3.20692e-01
6
# CELL(abcABC):  459.05226   459.05226   459.05226    90.00000    90.00000    90.00000  Step:          34  Bead:       0 x_centroid{angstrom}  cell{atomic_unit}
       C -3.53926e-01 -4.91469e-02  1.48600e-01
       O  8.51057e-01  2.07824e-01 -2.40111e-01
       H  1.98628e-02  9.95872e-01 -4.02287e-01
       H -4.73434e-01 -1.03672e+00  6.23647e-01
       L  5.42699e+01  5.17006e-01  1.06548e-01
       L  1.65223e+00  9.65748e-01  1.23460e-01
6
# CELL(abcABC):  459.05226   459.05226   459.05226    90.00000    90.00000    90.00000  Step:          35  Bead:       0 x_centroid{angstrom}  cell{atomic_unit}
       C -3.54723e-01 -4.70857e-02  1.49772e-01
       O  8.51447e-01  2.06666e-01 -2.41327e-01
       H  3.29006e-02  9.92925e-01 -3.92313e-01
       H -4.83145e-01 -1.03968e+00  6.19101e-01
       L  5.39943e+01  5.27513e-01  1.15740e-01
       L  1.90486e+00  4.75340e-01 -3.23363e-02
6
# CELL(abcABC):  459.05226   459.05226   459.05226    90.00000    90.00000    90.00000  Step:          36  Bead:       0 x_centroid{angstrom}  cell{atomic_unit}
       C -3.55590e-01 -4.53030e-02  1.51147e-01
       O  8.51897e-01  2.05653e-01 -2.42559e-01
       H  4.67431e-02  9.89998e-01 -3.82976e-01
       H -4.93817e-01 -1.04161e+00  6.13009e-01
       L  5.37526e+01  5.12382e-01  1.20620e-01
       L  2.15408e+00 -7.63650e-02 -1.64412e-01
6
# CELL(abcABC):  459.05226   459.05226   459.05226    90.00000    90.00000    90.00000  Step:          37  Bead:       0 x_centroid{angstrom}  cell{atomic_unit}
       C -3.56225e-01 -4.35013e-02  1.52553e-01
       O  8.52339e-01  2.04496e-01 -2.43671e-01
       H  5.84151e-02  9.88974e-01 -3.74601e-01
       H -5.04946e-01 -1.04337e+00  6.05616e-01
       L  5.35059e+01  4.87037e-01  1.40821e-01
       L  2.39610e+00 -6.32840e-01 -3.37085e-01
6
# CELL(abcABC):  459.05226   459.05226   459.05226    90.00000    90.00000    90.00000  Step:          38  Bead:       0 x_centroid{angstrom}  cell{atomic_unit}
       C -3.57434e-01 -4.17793e-02  1.54065e-01
       O  8.53166e-01  2.03142e-01 -2.44833e-01
       H  6.94748e-02  9.90228e-01 -3.67110e-01
       H -5.14681e-01 -1.04337e+00  5.98593e-01
       L  5.32364e+01  4.88669e-01  1.80588e-01
       L  2.61391e+00 -1.14704e+00 -4.63644e-01
6
# CELL(abcABC):  459.05226   459.05226   459.05226    90.00000    90.00000    90.00000  Step:          39  Bead:       0 x_centroid{angstrom}  cell{atomic_unit}
       C -3.58877e-01 -3.97109e-02  1.55871e-01
       O  8.54291e-01  2.01152e-01 -2.46187e-01
       H  7.78986e-02  9.95417e-01 -3.59467e-01
       H -5.23743e-01 -1.04137e+00  5.90974e-01
       L  5.29428e+01  4.74684e-01  1.74491e-01
       L  2.83102e+00 -1.61622e+00 -5.62595e-01
6
# CELL(abcABC):  459.05226   459.05226   459.05226    90.00000    90.00000    90.00000  Step:          40  Bead:       0 x_centroid{angstrom}  cell{atomic_unit}
       C -3.60700e-01 -3.77353e-02  1.57684e-01
       O  8.55761e-01  1.98929e-01 -2.47349e-01
       H  8.58409e-02  1.00437e+00 -3.53427e-01
       H -5.33202e-01 -1.03830e+00  5.81822e-01
       L  5.25961e+01  4.68767e-01  1.67247e-01
       L  3.04423e+00 -2.09862e+00 -6.24985e-01
6
# CELL(abcABC):  459.05226   459.05226   459.05226    90.00000    90.00000    90.00000  Step:          41  Bead:       0 x_centroid{angstrom}  cell{atomic_unit}
       C -3.62999e-01 -3.56170e-02  1.59185e-01
       O  8.57557e-01  1.96458e-01 -2.48156e-01
       H  9.44135e-02  1.01579e+00 -3.49480e-01
       H -5.42779e-01 -1.03552e+00  5.72844e-01
       L  5.21867e+01  4.85854e-01  1.38347e-01
       L  3.21303e+00 -2.52641e+00 -6.97746e-01
6
# CELL(abcABC):  459.05226   459.05226   459.05226    90.00000    90.00000    90.00000  Step:          42  Bead:       0 x_centroid{angstrom}  cell{atomic_unit}
       C -3.65522e-01 -3.37199e-02  1.60825e-01
       O  8.59380e-01  1.93907e-01 -2.48935e-01
       H  1.05567e-01  1.03050e+00 -3.47106e-01
       H -5.52642e-01 -1.03210e+00  5.63362e-01
       L  5.17130e+01  4.70498e-01  1.18839e-01
       L  3.39562e+00 -2.95324e+00 -8.01341e-01
6
# CELL(abcABC):  459.05226   459.05226   459.05226    90.00000    90.00000    90.00000  Step:          43  Bead:       0 x_centroid{angstrom}  cell{atomic_unit}
       C -3.67775e-01 -3.18139e-02  1.62603e-01
       O  8.60684e-01  1.91326e-01 -2.49726e-01
       H  1.20518e-01  1.04615e+00 -3.46302e-01
       H -5.61285e-01 -1.02924e+00  5.53981e-01
       L  5.12458e+01  4.32005e-01  9.45502e-02
       L  3.56496e+00 -3.35717e+00 -8.68660e-01
6
# CELL(abcABC):  459.05226   459.05226   459.05226    90.00000    90.00000    90.00000  Step:          44  Bead:       0 x_centroid{angstrom}  cell{atomic_unit}
       C -3.70459e-01 -2.98667e-02  1.64400e-01
       O  8.62102e-01  1.88796e-01 -2.50720e-01
       H  1.37390e-01  1.05890e+00 -3.44432e-01
       H -5.68469e-01 -1.02481e+00  5.46500e-01
       L  5.07191e+01  4.28517e-01  1.07339e-01
       L  3.70276e+00 -3.78088e+00 -9.27740e-01
6
# CELL(abcABC):  459.05226   459.05226   459.05226    90.00000    90.00000    90.00000  Step:          45  Bead:       0 x_centroid{angstrom}  cell{atomic_unit}
       C -3.73248e-01 -2.80074e-02  1.66356e-01
       O  8.63626e-01  1.86648e-01 -2.51905e-01
       H  1.55078e-01  1.06751e+00 -3.41701e-01
       H -5.76875e-01 -1.02127e+00  5.39308e-01
       L  5.01654e+01  4.39887e-01  7.29856e-02
       L  3.82093e+00 -4.19373e+00 -9.72729e-01
6
# CELL(abcABC):  459.05226   459.05226   459.05226    90.00000    90.00000    90.00000  Step:          46  Bead:       0 x_centroid{angstrom}  cell{atomic_unit}
       C -3.76234e-01 -2.58242e-02  1.68545e-01
       O  8.65459e-01  1.84368e-01 -2.53286e-01
       H  1.71309e-01  1.07306e+00 -3.37766e-01
       H -5.86331e-01 -1.01642e+00  5.31270e-01
       L  4.95476e+01  4.33890e-01 -1.80114e-02
       L  3.91541e+00 -4.59408e+00 -9.92712e-01
6
# CELL(abcABC):  459.05226   459.05226   459.05226    90.00000    90.00000    90.00000  Step:          47  Bead:       0 x_centroid{angstrom}  cell{atomic_unit}
       C -3.79382e-01 -2.35779e-02  1.70848e-01
       O  8.67468e-01  1.82243e-01 -2.54646e-01
       H  1.86488e-01  1.07603e+00 -3.34392e-01
       H -5.95561e-01 -1.01224e+00  5.22150e-01
       L  4.88507e+01  4.49186e-01 -1.49197e-01
       L  3.99417e+00 -4.93064e+00 -1.05213e+00
6
# CELL(abcABC):  459.05226   459.05226   459.05226    90.00000    90.00000    90.00000  Step:          48  Bead:       0 x_centroid{angstrom}  cell{atomic_unit}
       C -3.82757e-01 -2.15169e-02  1.73083e-01
       O  8.69614e-01  1.80522e-01 -2.55893e-01
       H  2.02608e-01  1.07549e+00 -3.30968e-01
       H -6.05111e-01 -1.00875e+00  5.11981e-01
       L  4.80817e+01  4.54891e-01 -2.74252e-01
       L  4.01307e+00 -5.29675e+00 -1.10398e+00
6
# CELL(abcABC):  459.05226   459.05226   459.05226    90.00000    90.00000    90.00000  Step:          49  Bead:       0 x_centroid{angstrom}  cell{atomic_unit}
       C -3.86102e-01 -1.94090e-02  1.75578e-01
       O  8.71599e-01  1.79011e-01 -2.57260e-01
       H  2.21131e-01  1.07254e+00 -3.28523e-01
       H -6.14872e-01 -1.00680e+00  5.01565e-01
       L  4.72720e+01  5.04313e-01 -3.82471e-01
       L  4.05039e+00 -5.59198e+00 -1.09968e+00
6
# CELL(abcABC):  459.05226   459.05226   459.05226    90.00000    90.00000    90.00000  Step:          50  Bead:       0 x_centroid{angstrom}  cell{atomic_unit}
       C -3.89933e-01 -1.70962e-02  1.78531e-01
       O  8.73747e-01  1.77602e-01 -2.58960e-01
       H  2.42898e-01  1.06828e+00 -3.26193e-01
       H -6.24610e-01 -1.00761e+00  4.91056e-01
       L  4.64683e+01  5.16112e-01 -4.48223e-01
       L  3.98969e+00 -5.83582e+00 -1.09520e+00
6
# CELL(abcABC):  459.05226   459.05226   459.05226    90.00000    90.00000    90.00000  Step:          51  Bead:       0 x_centroid{angstrom}  cell{atomic_unit}
       C -3.93862e-01 -1.43626e-02  1.81447e-01
       O  8.75903e-01  1.75990e-01 -2.60676e-01
       H  2.66041e-01  1.06486e+00 -3.24384e-01
       H -6.34622e-01 -1.01109e+00  4.81822e-01
       L  4.56053e+01  5.23031e-01 -5.32134e-01
       L  3.87620e+00 -6.01010e+00 -1.17428e+00
6
# CELL(abcABC):  459.05226   459.05226   459.05226    90.00000    90.00000    90.00000  Step:          52  Bead:       0 x_centroid{angstrom}  cell{atomic_unit}
       C -3.97876e-01 -1.18410e-02  1.84484e-01
       O  8.77962e-01  1.74595e-01 -2.62401e-01
       H  2.91932e-01  1.06252e+00 -3.23500e-01
       H -6.44781e-01 -1.01657e+00  4.72236e-01
       L  4.46568e+01  5.33346e-01 -6.46214e-01
       L  3.76126e+00 -6.18946e+00 -1.20692e+00
6
# CELL(abcABC):  459.05226   459.05226   459.05226    90.00000    90.00000    90.00000  Step:          53  Bead:       0 x_centroid{angstrom}  cell{atomic_unit}
       C -4.02244e-01 -8.87936e-03  1.87638e-01
       O  8.80320e-01  1.72864e-01 -2.64042e-01
       H  3.18768e-01  1.06268e+00 -3.24802e-01
       H -6.56297e-01 -1.02444e+00  4.62086e-01
       L  4.35603e+01  4.73434e-01 -7.99788e-01
       L  3.55553e+00 -6.29705e+00 -1.25005e+00
6
# CELL(abcABC):  459.05226   459.05226   459.05226    90.00000    90.00000    90.00000  Step:          54  Bead:       0 x_centroid{angstrom}  cell{atomic_unit}
       C -4.07246e-01 -6.10971e-03  1.91260e-01
       O  8.83046e-01  1.71276e-01 -2.65875e-01
       H  3.47798e-01  1.06631e+00 -3.26928e-01
       H -6.68229e-01 -1.03576e+00  4.50237e-01
       L  4.23920e+01  3.87333e-01 -9.44002e-01
       L  3.32536e+00 -6.41830e+00 -1.24204e+00
6
# CELL(abcABC):  459.05226   459.05226   459.05226    90.00000    90.00000    90.00000  Step:          55  Bead:       0 x_centroid{angstrom}  cell{atomic_unit}
       C -4.12784e-01 -3.41021e-03  1.95198e-01
       O  8.85920e-01  1.69688e-01 -2.67869e-01
       H  3.79526e-01  1.07135e+00 -3.30291e-01
       H -6.78751e-01 -1.04769e+00  4.38374e-01
       L  4.10915e+01  3.16910e-01 -1.04806e+00
       L  3.09645e+00 -6.49043e+00 -1.24641e+00
6
# CELL(abcABC):  459.05226   459.05226   459.05226    90.00000    90.00000    90.00000  Step:          56  Bead:       0 x_centroid{angstrom}  cell{atomic_unit}
       C -4.18889e-01 -8.39984e-04  1.99309e-01
       O  8.88869e-01  1.68185e-01 -2.69723e-01
       H  4.15710e-01  1.07620e+00 -3.35300e-01
       H -6.88056e-01 -1.05926e+00  4.23885e-01
       L  3.96915e+01  2.81932e-01 -1.16290e+00
       L  2.77862e+00 -6.53061e+00 -1.23309e+00
6
# CELL(abcABC):  459.05226   459.05226   459.05226    90.00000    90.00000    90.00000  Step:          57  Bead:       0 x_centroid{angstrom}  cell{atomic_unit}
       C -4.25259e-01  1.43163e-03  2.03890e-01
       O  8.91764e-01  1.66824e-01 -2.71682e-01
       H  4.54997e-01  1.08070e+00 -3.42285e-01
       H -6.96414e-01 -1.06925e+00  4.07420e-01
       L  3.82256e+01  3.18873e-01 -1.26367e+00
       L  2.43195e+00 -6.49712e+00 -1.21091e+00
6
# CELL(abcABC):  459.05226   459.05226   459.05226    90.00000    90.00000    90.00000  Step:          58  Bead:       0 x_centroid{angstrom}  cell{atomic_unit}
       C -4.31930e-01  3.40347e-03  2.08649e-01
       O  8.94642e-01  1.65696e-01 -2.73652e-01
       H  4.96531e-01  1.08304e+00 -3.51262e-01
       H -7.03078e-01 -1.07722e+00  3.91043e-01
       L  3.66653e+01  3.51036e-01 -1.41115e+00
       L  2.04354e+00 -6.48528e+00 -1.20225e+00
6
# CELL(abcABC):  459.05226   459.05226   459.05226    90.00000    90.00000    90.00000  Step:          59  Bead:       0 x_centroid{angstrom}  cell{atomic_unit}
       C -4.39307e-01  5.31224e-03  2.13751e-01
       O  8.97882e-01  1.64575e-01 -2.75708e-01
       H  5.41063e-01  1.08259e+00 -3.61917e-01
       H -7.10006e-01 -1.08173e+00  3.73613e-01
       L  3.50421e+01  3.62923e-01 -1.50123e+00
       L  1.59364e+00 -6.47413e+00 -1.27172e+00
6
# CELL(abcABC):  459.05226   459.05226   459.05226    90.00000    90.00000    90.00000  Step:          60  Bead:       0 x_centroid{angstrom}  cell{atomic_unit}
       C -4.47008e-01  7.07674e-03  2.19182e-01
       O  9.01020e-01  1.63401e-01 -2.78017e-01
       H  5.88919e-01  1.08147e+00 -3.73145e-01
       H -7.14694e-01 -1.08302e+00  3.56897e-01
       L  3.32920e+01  3.62670e-01 -1.65393e+00
       L  1.13231e+00 -6.43017e+00 -1.31698e+00
6
# CELL(abcABC):  459.05226   459.05226   459.05226    90.00000    90.00000    90.00000  Step:          61  Bead:       0 x_centroid{angstrom}  cell{atomic_unit}
       C -4.54405e-01  8.20769e-03  2.25176e-01
       O  9.03779e-01  1.62512e-01 -2.80578e-01
       H  6.38802e-01  1.08118e+00 -3.86560e-01
       H -7.18965e-01 -1.08215e+00  3.39604e-01
       L  3.14493e+01  3.84645e-01 -1.73933e+00
       L  6.43062e-01 -6.35087e+00 -1.37242e+00
6
# CELL(abcABC):  459.05226   459.05226   459.05226    90.00000    90.00000    90.00000  Step:          62  Bead:       0 x_centroid{angstrom}  cell{atomic_unit}
       C -4.61795e-01  9.35757e-03  2.31143e-01
       O  9.06245e-01  1.61356e-01 -2.83016e-01
       H  6.90586e-01  1.08207e+00 -4.00093e-01
       H -7.20511e-01 -1.07843e+00  3.20854e-01
       L  2.95191e+01  3.68603e-01 -1.86069e+00
       L  1.30168e-01 -6.27695e+00 -1.45748e+00
6
# CELL(abcABC):  459.05226   459.05226   459.05226    90.00000    90.00000    90.00000  Step:          63  Bead:       0 x_centroid{angstrom}  cell{atomic_unit}
       C -4.69311e-01  1.01314e-02  2.36993e-01
       O  9.08439e-01  1.60289e-01 -2.85255e-01
       H  7.43849e-01  1.08584e+00 -4.15048e-01
       H -7.17692e-01 -1.07452e+00  3.01693e-01
       L  2.75245e+01  3.72283e-01 -1.90380e+00
       L -3.53992e-01 -6.20676e+00 -1.52978e+00
6
# CELL(abcABC):  459.05226   459.05226   459.05226    90.00000    90.00000    90.00000  Step:          64  Bead:       0 x_centroid{angstrom}  cell{atomic_unit}
       C -4.76451e-01  1.10164e-02  2.42683e-01
       O  9.10156e-01  1.58897e-01 -2.87335e-01
       H  7.98611e-01  1.09194e+00 -4.30853e-01
       H -7.13259e-01 -1.06914e+00  2.82740e-01
       L  2.54872e+01  4.23650e-01 -1.88028e+00
       L -8.14104e-01 -6.12518e+00 -1.58043e+00
6
# CELL(abcABC):  459.05226   459.05226   459.05226    90.00000    90.00000    90.00000  Step:          65  Bead:       0 x_centroid{angstrom}  cell{atomic_unit}
       C -4.83440e-01  1.20863e-02  2.48147e-01
       O  9.11599e-01  1.57318e-01 -2.89158e-01
       H  8.54059e-01  1.09835e+00 -4.47006e-01
       H -7.06977e-01 -1.06331e+00  2.62745e-01
       L  2.33867e+01  4.75198e-01 -1.88712e+00
       L -1.22815e+00 -6.04666e+00 -1.62931e+00
6
# CELL(abcABC):  459.05226   459.05226   459.05226    90.00000    90.00000    90.00000  Step:          66  Bead:       0 x_centroid{angstrom}  cell{atomic_unit}
       C -4.90204e-01  1.32032e-02  2.53298e-01