6
# CELL(abcABC):  459.05226   459.05226   459.05226    90.00000    90.00000    90.00000  Step:           0  Bead:       0 x_centroid{angstrom}  cell{atomic_unit}
       C -3.39887e-01 -1.13437e-01  8.06659e-02
       O  8.43483e-01  2.62672e-01 -1.81512e-01
       H -7.35799e-02  8.16467e-01 -6.61432e-01
       H -4.30016e-01 -9.65701e-01  7.62278e-01
       L  6.13458e+01  0.00000e+00  0.00000e+00
       L  0.00000e+00  8.59064e+00  0.00000e+00
6
# CELL(abcABC):  459.05226   459.05226   459.05226    90.00000    90.00000    90.00000  Step:           1  Bead:       0 x_centroid{angstrom}  cell{atomic_unit}
       C -3.38699e-01 -1.14473e-01  7.93665e-02
       O  8.43757e-01  2.63856e-01 -1.81080e-01
       H -7.91207e-02  8.11528e-01 -6.53787e-01
       H -4.42964e-01 -9.67159e-01  7.63380e-01
       L  6.17446e+01  1.39516e-01 -2.13561e-01
       L -4.09249e-01  8.33502e+00 -2.89845e-02
6
# CELL(abcABC):  459.05226   459.05226   459.05226    90.00000    90.00000    90.00000  Step:           2  Bead:       0 x_centroid{angstrom}  cell{atomic_unit}
       C -3.37415e-01 -1.15337e-01  7.82986e-02
       O  8.43670e-01  2.64824e-01 -1.80741e-01
       H -8.18287e-02  8.06837e-01 -6.48232e-01
       H -4.54190e-01 -9.67499e-01  7.65304e-01
       L  6.21470e+01  3.35521e-01 -4.26061e-01
       L -8.01430e-01  8.07877e+00 -5.57927e-02
6
# CELL(abcABC):  459.05226   459.05226   459.05226    90.00000    90.00000    90.00000  Step:           3  Bead:       0 x_centroid{angstrom}  cell{atomic_unit}
       C -3.36005e-01 -1.16364e-01  7.72712e-02
       O  8.43014e-01  2.65755e-01 -1.80419e-01
       H -7.90901e-02  8.04626e-01 -6.43804e-01
       H -4.63335e-01 -9.67825e-01  7.68125e-01
       L  6.25598e+01  5.32225e-01 -6.50593e-01
       L -1.18287e+00  7.86095e+00 -4.98636e-02
6
# CELL(abcABC):  459.05226   459.05226   459.05226    90.00000    90.00000    90.00000  Step:           4  Bead:       0 x_centroid{angstrom}  cell{atomic_unit}
       C -3.34850e-01 -1.17480e-01  7.63163e-02
       O  8.42284e-01  2.66525e-01 -1.80129e-01
       H -7.37882e-02  8.04847e-01 -6.40582e-01
       H -4.70802e-01 -9.66983e-01  7.71819e-01
       L  6.29601e+01  7.31913e-01 -8.98702e-01
       L -1.59612e+00  7.68287e+00 -5.29525e-02
6
# CELL(abcABC):  459.05226   459.05226   459.05226    90.00000    90.00000    90.00000  Step:           5  Bead:       0 x_centroid{angstrom}  cell{atomic_unit}
       C -3.33692e-01 -1.18722e-01  7.54911e-02
       O  8.41539e-01  2.67129e-01 -1.79808e-01
       H -6.90999e-02  8.08938e-01 -6.40571e-01
       H -4.77506e-01 -9.65819e-01  7.76667e-01
       L  6.33773e+01  8.53966e-01 -1.13437e+00
       L -1.95136e+00  7.49815e+00 -4.68702e-02
6
# CELL(abcABC):  459.05226   459.05226   459.05226    90.00000    90.00000    90.00000  Step:           6  Bead:       0 x_centroid{angstrom}  cell{atomic_unit}
       C -3.32736e-01 -1.20161e-01  7.46448e-02
       O  8.41191e-01  2.67679e-01 -1.79286e-01
       H -6.78724e-02  8.14750e-01 -6.42723e-01
       H -4.84633e-01 -9.63212e-01  7.80699e-01
       L  6.37871e+01  1.01640e+00 -1.38846e+00
       L -2.30177e+00  7.33534e+00  6.33544e-02
6
# CELL(abcABC):  459.05226   459.05226   459.05226    90.00000    90.00000    90.00000  Step:           7  Bead:       0 x_centroid{angstrom}  cell{atomic_unit}
       C -3.32065e-01 -1.21691e-01  7.37217e-02
       O  8.41497e-01  2.68161e-01 -1.78498e-01
       H -7.32595e-02  8.21291e-01 -6.47076e-01
       H -4.92133e-01 -9.59167e-01  7.83597e-01
       L  6.41424e+01  1.14236e+00 -1.61664e+00
       L -2.59737e+00  7.17493e+00  1.92165e-01
6
# CELL(abcABC):  459.05226   459.05226   459.05226    90.00000    90.00000    90.00000  Step:           8  Bead:       0 x_centroid{angstrom}  cell{atomic_unit}
       C -3.31792e-01 -1.23271e-01  7.27924e-02
       O  8.42305e-01  2.68574e-01 -1.77752e-01
       H -8.20788e-02  8.27469e-01 -6.50766e-01
       H -4.99390e-01 -9.53060e-01  7.86536e-01
       L  6.44438e+01  1.28626e+00 -1.76846e+00
       L -2.87492e+00  7.03577e+00  3.05951e-01
6
# CELL(abcABC):  459.05226   459.05226   459.05226    90.00000    90.00000    90.00000  Step:           9  Bead:       0 x_centroid{angstrom}  cell{atomic_unit}
       C -3.31462e-01 -1.24823e-01  7.18783e-02
       O  8.43004e-01  2.69050e-01 -1.77022e-01
       H -9.09385e-02  8.32216e-01 -6.54307e-01
       H -5.05621e-01 -9.46829e-01  7.89386e-01
       L  6.47536e+01  1.39469e+00 -1.91841e+00
       L -3.08413e+00  6.85155e+00  4.57899e-01
6
# CELL(abcABC):  459.05226   459.05226   459.05226    90.00000    90.00000    90.00000  Step:          10  Bead:       0 x_centroid{angstrom}  cell{atomic_unit}
       C -3.31272e-01 -1.26392e-01  7.10509e-02
       O  8.43437e-01  2.69495e-01 -1.76402e-01
       H -9.66528e-02  8.34893e-01 -6.56960e-01
       H -5.09176e-01 -9.37867e-01  7.92078e-01
       L  6.51549e+01  1.50661e+00 -2.12802e+00
       L -3.24591e+00  6.71908e+00  6.10458e-01
6
# CELL(abcABC):  459.05226   459.05226   459.05226    90.00000    90.00000    90.00000  Step:          11  Bead:       0 x_centroid{angstrom}  cell{atomic_unit}
       C -3.30760e-01 -1.27600e-01  6.99868e-02
       O  8.43021e-01  2.69819e-01 -1.75700e-01
       H -9.63814e-02  8.36241e-01 -6.59079e-01
       H -5.09099e-01 -9.29953e-01  7.95777e-01
       L  6.55827e+01  1.61722e+00 -2.30482e+00
       L -3.36804e+00  6.58635e+00  7.27119e-01
6
# CELL(abcABC):  459.05226   459.05226   459.05226    90.00000    90.00000    90.00000  Step:          12  Bead:       0 x_centroid{angstrom}  cell{atomic_unit}
       C -3.30345e-01 -1.28639e-01  6.89688e-02
       O  8.42203e-01  2.70184e-01 -1.75159e-01
       H -9.11236e-02  8.36356e-01 -6.59935e-01
       H -5.06555e-01 -9.23445e-01  8.00269e-01
       L  6.60744e+01  1.70416e+00 -2.50915e+00
       L -3.42662e+00  6.44664e+00  7.43626e-01
6
# CELL(abcABC):  459.05226   459.05226   459.05226    90.00000    90.00000    90.00000  Step:          13  Bead:       0 x_centroid{angstrom}  cell{atomic_unit}
       C -3.30110e-01 -1.29657e-01  6.77023e-02
       O  8.41223e-01  2.70674e-01 -1.74378e-01
       H -8.37524e-02  8.34574e-01 -6.60324e-01
       H -5.01492e-01 -9.17288e-01  8.03444e-01
       L  6.66085e+01  1.79510e+00 -2.69405e+00
       L -3.40295e+00  6.32627e+00  7.71898e-01
6
# CELL(abcABC):  459.05226   459.05226   459.05226    90.00000    90.00000    90.00000  Step:          14  Bead:       0 x_centroid{angstrom}  cell{atomic_unit}
       C -3.30250e-01 -1.30361e-01  6.60127e-02
       O  8.40638e-01  2.71167e-01 -1.73247e-01
       H -8.02561e-02  8.29831e-01 -6.60426e-01
       H -4.94334e-01 -9.11994e-01  8.05814e-01
       L  6.71179e+01  1.91508e+00 -2.88751e+00
       L -3.36269e+00  6.21923e+00  8.12486e-01
6
# CELL(abcABC):  459.05226   459.05226   459.05226    90.00000    90.00000    90.00000  Step:          15  Bead:       0 x_centroid{angstrom}  cell{atomic_unit}
       C -3.30692e-01 -1.30526e-01  6.43216e-02
       O  8.40587e-01  2.71473e-01 -1.72178e-01
       H -8.18412e-02  8.22384e-01 -6.59266e-01
       H -4.86976e-01 -9.07413e-01  8.07918e-01
       L  6.76459e+01  2.02776e+00 -3.06222e+00
       L -3.29499e+00  6.06378e+00  8.41840e-01
6
# CELL(abcABC):  459.05226   459.05226   459.05226    90.00000    90.00000    90.00000  Step:          16  Bead:       0 x_centroid{angstrom}  cell{atomic_unit}
       C -3.31308e-01 -1.30401e-01  6.26984e-02
       O  8.41016e-01  2.71664e-01 -1.71129e-01
       H -8.91720e-02  8.13544e-01 -6.57544e-01
       H -4.79460e-01 -9.03103e-01  8.08972e-01
       L  6.81876e+01  2.11999e+00 -3.23809e+00
       L -3.23347e+00  5.97818e+00  8.50665e-01
6
# CELL(abcABC):  459.05226   459.05226   459.05226    90.00000    90.00000    90.00000  Step:          17  Bead:       0 x_centroid{angstrom}  cell{atomic_unit}
       C -3.32080e-01 -1.30069e-01  6.09533e-02
       O  8.41769e-01  2.71717e-01 -1.69952e-01
       H -1.01033e-01  8.04701e-01 -6.56571e-01
       H -4.70671e-01 -8.99018e-01  8.10195e-01
       L  6.87094e+01  2.13692e+00 -3.30921e+00
       L -3.15697e+00  5.88527e+00  7.69074e-01
6
# CELL(abcABC):  459.05226   459.05226   459.05226    90.00000    90.00000    90.00000  Step:          18  Bead:       0 x_centroid{angstrom}  cell{atomic_unit}
       C -3.32488e-01 -1.29962e-01  5.89563e-02
       O  8.42012e-01  2.71917e-01 -1.68715e-01
       H -1.10048e-01  7.98207e-01 -6.56647e-01
       H -4.61013e-01 -8.96942e-01  8.14528e-01
       L  6.92624e+01  2.16605e+00 -3.37244e+00
       L -3.05922e+00  5.79516e+00  6.50567e-01
6
# CELL(abcABC):  459.05226   459.05226   459.05226    90.00000    90.00000    90.00000  Step:          19  Bead:       0 x_centroid{angstrom}  cell{atomic_unit}
       C -3.32480e-01 -1.29853e-01  5.68128e-02
       O  8.41666e-01  2.72039e-01 -1.67409e-01
       H -1.15815e-01  7.95645e-01 -6.58579e-01
       H -4.50221e-01 -8.97584e-01  8.21337e-01
       L  6.98486e+01  2.18735e+00 -3.40582e+00
       L -2.93786e+00  5.69973e+00  5.79562e-01
6
# CELL(abcABC):  459.05226   459.05226   459.05226    90.00000    90.00000    90.00000  Step:          20  Bead:       0 x_centroid{angstrom}  cell{atomic_unit}
       C -3.31878e-01 -1.29505e-01  5.47700e-02
       O  8.40535e-01  2.71860e-01 -1.66176e-01
       H -1.16598e-01  7.95889e-01 -6.62415e-01
       H -4.39037e-01 -8.99095e-01  8.29969e-01
       L  7.04134e+01  2.17769e+00 -3.41623e+00
       L -2.81650e+00  5.65868e+00  5.42051e-01
6
# CELL(abcABC):  459.05226   459.05226   459.05226    90.00000    90.00000    90.00000  Step:          21  Bead:       0 x_centroid{angstrom}  cell{atomic_unit}
       C -3.30887e-01 -1.29080e-01  5.30039e-02
       O  8.39080e-01  2.71495e-01 -1.65063e-01
       H -1.16932e-01  7.97733e-01 -6.68218e-01
       H -4.27829e-01 -9.00187e-01  8.39120e-01
       L  7.10161e+01  2.19579e+00 -3.33340e+00
       L -2.67561e+00  5.59238e+00  5.07971e-01
6
# CELL(abcABC):  459.05226   459.05226   459.05226    90.00000    90.00000    90.00000  Step:          22  Bead:       0 x_centroid{angstrom}  cell{atomic_unit}
       C -3.30153e-01 -1.28788e-01  5.13158e-02
       O  8.37914e-01  2.71106e-01 -1.63864e-01
       H -1.19158e-01  8.00612e-01 -6.75081e-01
       H -4.16267e-01 -9.00289e-01  8.46993e-01
       L  7.16339e+01  2.11213e+00 -3.25278e+00
       L -2.47539e+00  5.51903e+00  5.44577e-01
6
# CELL(abcABC):  459.05226   459.05226   459.05226    90.00000    90.00000    90.00000  Step:          23  Bead:       0 x_centroid{angstrom}  cell{atomic_unit}
       C -3.29341e-01 -1.28619e-01  4.96311e-02
       O  8.37019e-01  2.70777e-01 -1.62558e-01
       H -1.26282e-01  8.02780e-01 -6.81921e-01
       H -4.05085e-01 -8.99149e-01  8.53154e-01
       L  7.22235e+01  2.00660e+00 -3.22386e+00
       L -2.23135e+00  5.45566e+00  5.59933e-01
6
# CELL(abcABC):  459.05226   459.05226   459.05226    90.00000    90.00000    90.00000  Step:          24  Bead:       0 x_centroid{angstrom}  cell{atomic_unit}
       C -3.28243e-01 -1.28245e-01  4.81909e-02
       O  8.36393e-01  2.70345e-01 -1.61359e-01
       H -1.38628e-01  8.03325e-01 -6.88535e-01
       H -3.96336e-01 -8.97199e-01  8.57859e-01
       L  7.27982e+01  1.93381e+00 -3.14434e+00
       L -1.96379e+00  5.35133e+00  5.74682e-01
6
# CELL(abcABC):  459.05226   459.05226   459.05226    90.00000    90.00000    90.00000  Step:          25  Bead:       0 x_centroid{angstrom}  cell{atomic_unit}
       C -3.27228e-01 -1.28124e-01  4.67076e-02
       O  8.35952e-01  2.70086e-01 -1.60002e-01
       H -1.52270e-01  8.03324e-01 -6.94747e-01
       H -3.88288e-01 -8.94493e-01  8.60129e-01
       L  7.33944e+01  1.93193e+00 -3.08154e+00
       L -1.64421e+00  5.28007e+00  6.44114e-01
6
# CELL(abcABC):  459.05226   459.05226   459.05226    90.00000    90.00000    90.00000  Step:          26  Bead:       0 x_centroid{angstrom}  cell{atomic_unit}
       C -3.26161e-01 -1.28001e-01  4.54889e-02
       O  8.35499e-01  2.69974e-01 -1.58998e-01
       H -1.65938e-01  8.01945e-01 -6.98317e-01
       H -3.80686e-01 -8.92752e-01  8.62155e-01
       L  7.40213e+01  1.88787e+00 -2.92003e+00
       L -1.28509e+00  5.21793e+00  7.29185e-01
6
# CELL(abcABC):  459.05226   459.05226   459.05226    90.00000    90.00000    90.00000  Step:          27  Bead:       0 x_centroid{angstrom}  cell{atomic_unit}
       C -3.24687e-01 -1.27784e-01  4.44997e-02
       O  8.34576e-01  2.69864e-01 -1.58306e-01
       H -1.77344e-01  7.99894e-01 -7.00103e-01
       H -3.72780e-01 -8.91464e-01  8.64545e-01
       L  7.47313e+01  1.79559e+00 -2.68102e+00
       L -9.10030e-01  5.17995e+00  8.27859e-01
6
# CELL(abcABC):  459.05226   459.05226   459.05226    90.00000    90.00000    90.00000  Step:          28  Bead:       0 x_centroid{angstrom}  cell{atomic_unit}
       C -3.22370e-01 -1.27545e-01  4.29744e-02
       O  8.32743e-01  2.69729e-01 -1.57325e-01
       H -1.84252e-01  7.97757e-01 -6.99969e-01
       H -3.64996e-01 -8.89952e-01  8.66792e-01
       L  7.54528e+01  1.68495e+00 -2.39398e+00
       L -5.25375e-01  5.15894e+00  9.59804e-01
6
# CELL(abcABC):  459.05226   459.05226   459.05226    90.00000    90.00000    90.00000  Step:          29  Bead:       0 x_centroid{angstrom}  cell{atomic_unit}
       C -3.19480e-01 -1.27383e-01  4.17054e-02
       O  8.30292e-01  2.69627e-01 -1.56505e-01
       H -1.87796e-01  7.95197e-01 -6.99229e-01
       H -3.57618e-01 -8.87635e-01  8.67993e-01
       L  7.62438e+01  1.57861e+00 -2.12171e+00
       L -1.32785e-01  5.11567e+00  9.91794e-01
6
# CELL(abcABC):  459.05226   459.05226   459.05226    90.00000    90.00000    90.00000  Step:          30  Bead:       0 x_centroid{angstrom}  cell{atomic_unit}
       C -3.16134e-01 -1.26909e-01  4.04694e-02
       O  8.27449e-01  2.69320e-01 -1.55704e-01
       H -1.89475e-01  7.91600e-01 -6.97204e-01
       H -3.51372e-01 -8.84660e-01  8.67779e-01
       L  7.70940e+01  1.42072e+00 -1.77914e+00
       L  2.71986e-01  5.03349e+00  1.01036e+00
6
# CELL(abcABC):  459.05226   459.05226   459.05226    90.00000    90.00000    90.00000  Step:          31  Bead:       0 x_centroid{angstrom}  cell{atomic_unit}
       C -3.12567e-01 -1.26258e-01  3.91426e-02
       O  8.24620e-01  2.68917e-01 -1.54860e-01
       H -1.93017e-01  7.87149e-01 -6.94839e-01
       H -3.46130e-01 -8.81462e-01  8.67618e-01
       L  7.79566e+01  1.28200e+00 -1.36286e+00
       L  7.08805e-01  4.94083e+00  9.93899e-01
6
# CELL(abcABC):  459.05226   459.05226   459.05226    90.00000    90.00000    90.00000  Step:          32  Bead:       0 x_centroid{angstrom}  cell{atomic_unit}
       C -3.08655e-01 -1.25545e-01  3.78833e-02
       O  8.21956e-01  2.68527e-01 -1.54037e-01
       H -2.01234e-01  7.81484e-01 -6.91481e-01
       H -3.43001e-01 -8.77951e-01  8.66002e-01
       L  7.88725e+01  1.11309e+00 -9.57667e-01
       L  1.18279e+00  4.82606e+00  9.56774e-01
6
# CELL(abcABC):  459.05226   459.05226   459.05226    90.00000    90.00000    90.00000  Step:          33  Bead:       0 x_centroid{angstrom}  cell{atomic_unit}
       C -3.04838e-01 -1.24769e-01  3.68449e-02
       O  8.19651e-01  2.68060e-01 -1.53332e-01
       H -2.12325e-01  7.75910e-01 -6.88383e-01
       H -3.41589e-01 -8.74065e-01  8.63880e-01
       L  7.98054e+01  9.44978e-01 -5.78921e-01
       L  1.68748e+00  4.72904e+00  9.69506e-01
6
# CELL(abcABC):  459.05226   459.05226   459.05226    90.00000    90.00000    90.00000  Step:          34  Bead:       0 x_centroid{angstrom}  cell{atomic_unit}
       C -3.00943e-01 -1.24066e-01  3.57224e-02
       O  8.17570e-01  2.67617e-01 -1.52598e-01
       H -2.25945e-01  7.70970e-01 -6.86691e-01
       H -3.42115e-01 -8.70341e-01  8.63703e-01
       L  8.07217e+01  7.47902e-01 -1.86306e-01
       L  2.17934e+00  4.71413e+00  9.45477e-01
6
# CELL(abcABC):  459.05226   459.05226   459.05226    90.00000    90.00000    90.00000  Step:          35  Bead:       0 x_centroid{angstrom}  cell{atomic_unit}
       C -2.96782e-01 -1.23268e-01  3.51161e-02
       O  8.15395e-01  2.66849e-01 -1.52379e-01
       H -2.40757e-01  7.68749e-01 -6.85977e-01
       H -3.43153e-01 -8.65382e-01  8.66500e-01
       L  8.16867e+01  5.90260e-01  1.87381e-01
       L  2.65482e+00  4.75128e+00  9.99517e-01
6
# CELL(abcABC):  459.05226   459.05226   459.05226    90.00000    90.00000    90.00000  Step:          36  Bead:       0 x_centroid{angstrom}  cell{atomic_unit}
       C -2.92661e-01 -1.22425e-01  3.45357e-02
       O  8.13473e-01  2.65819e-01 -1.52234e-01
       H -2.57655e-01  7.70231e-01 -6.86861e-01
       H -3.45647e-01 -8.60531e-01  8.71790e-01
       L  8.27052e+01  4.53619e-01  5.57796e-01
       L  3.12482e+00  4.83447e+00  1.02222e+00
6
# CELL(abcABC):  459.05226   459.05226   459.05226    90.00000    90.00000    90.00000  Step:          37  Bead:       0 x_centroid{angstrom}  cell{atomic_unit}
       C -2.88471e-01 -1.21506e-01  3.39721e-02
       O  8.11596e-01  2.64485e-01 -1.52237e-01
       H -2.75130e-01  7.75173e-01 -6.88730e-01
       H -3.49083e-01 -8.55248e-01  8.80233e-01
       L  8.37218e+01  2.94493e-01  9.16488e-01
       L  3.52991e+00  4.98845e+00  1.01188e+00
6
# CELL(abcABC):  459.05226   459.05226   459.05226    90.00000    90.00000    90.00000  Step:          38  Bead:       0 x_centroid{angstrom}  cell{atomic_unit}
       C -2.84145e-01 -1.20501e-01  3.32446e-02
       O  8.09772e-01  2.63010e-01 -1.52227e-01
       H -2.93496e-01  7.81940e-01 -6.90513e-01
       H -3.54125e-01 -8.50639e-01  8.90384e-01
       L  8.47987e+01  1.97318e-01  1.23070e+00
       L  3.96007e+00  5.19762e+00  9.49066e-01
6
# CELL(abcABC):  459.05226   459.05226   459.05226    90.00000    90.00000    90.00000  Step:          39  Bead:       0 x_centroid{angstrom}  cell{atomic_unit}
       C -2.79988e-01 -1.19264e-01  3.26581e-02
       O  8.08283e-01  2.61278e-01 -1.52506e-01
       H -3.13252e-01  7.89720e-01 -6.91423e-01
       H -3.61159e-01 -8.45757e-01  9.02589e-01
       L  8.60123e+01  1.04470e-01  1.53082e+00
       L  4.35430e+00  5.47130e+00  8.82395e-01
6
# CELL(abcABC):  459.05226   459.05226   459.05226    90.00000    90.00000    90.00000  Step:          40  Bead:       0 x_centroid{angstrom}  cell{atomic_unit}
       C -2.75740e-01 -1.17724e-01  3.23827e-02
       O  8.06948e-01  2.59346e-01 -1.53188e-01
       H -3.36411e-01  7.96942e-01 -6.91030e-01
       H -3.68322e-01 -8.40837e-01  9.16183e-01
       L  8.73231e+01  4.77043e-02  1.78957e+00
       L  4.69645e+00  5.82225e+00  8.36351e-01
6
# CELL(abcABC):  459.05226   459.05226   459.05226    90.00000    90.00000    90.00000  Step:          41  Bead:       0 x_centroid{angstrom}  cell{atomic_unit}
       C -2.71409e-01 -1.15752e-01  3.22719e-02
       O  8.05718e-01  2.57079e-01 -1.54078e-01
       H -3.61418e-01  8.03562e-01 -6.90218e-01
       H -3.76285e-01 -8.35133e-01  9.30727e-01
       L  8.86744e+01 -3.15029e-02  2.03328e+00
       L  4.97594e+00  6.23192e+00  7.62419e-01
6
# CELL(abcABC):  459.05226   459.05226   459.05226    90.00000    90.00000    90.00000  Step:          42  Bead:       0 x_centroid{angstrom}  cell{atomic_unit}
       C -2.67168e-01 -1.13582e-01  3.20370e-02
       O  8.04813e-01  2.54616e-01 -1.55075e-01
       H -3.89736e-01  8.10144e-01 -6.86891e-01
       H -3.85092e-01 -8.28669e-01  9.45950e-01
       L  9.01673e+01 -1.32614e-01  2.26149e+00
       L  5.23033e+00  6.65668e+00  6.90039e-01
6
# CELL(abcABC):  459.05226   459.05226   459.05226    90.00000    90.00000    90.00000  Step:          43  Bead:       0 x_centroid{angstrom}  cell{atomic_unit}
       C -2.62667e-01 -1.11028e-01  3.16437e-02
       O  8.04059e-01  2.51777e-01 -1.56087e-01
       H -4.22184e-01  8.16140e-01 -6.82083e-01
       H -3.95326e-01 -8.20292e-01  9.61825e-01
       L  9.17835e+01 -1.42349e-01  2.44145e+00
       L  5.49302e+00  7.15526e+00  6.25430e-01
6
# CELL(abcABC):  459.05226   459.05226   459.05226    90.00000    90.00000    90.00000  Step:          44  Bead:       0 x_centroid{angstrom}  cell{atomic_unit}
       C -2.58185e-01 -1.08087e-01  3.08056e-02
       O  8.03590e-01  2.48642e-01 -1.56961e-01
       H -4.58070e-01  8.20825e-01 -6.75373e-01
       H -4.06499e-01 -8.10603e-01  9.78951e-01
       L  9.35343e+01 -1.27185e-01  2.55501e+00
       L  5.73046e+00  7.77785e+00  5.46008e-01
6
# CELL(abcABC):  459.05226   459.05226   459.05226    90.00000    90.00000    90.00000  Step:          45  Bead:       0 x_centroid{angstrom}  cell{atomic_unit}
       C -2.53782e-01 -1.04534e-01  2.98568e-02
       O  8.03473e-01  2.45003e-01 -1.57895e-01
       H -4.98350e-01  8.24541e-01 -6.66899e-01
       H -4.17896e-01 -7.99288e-01  9.96602e-01
       L  9.53654e+01 -8.76398e-02  2.68033e+00
       L  5.87243e+00  8.45735e+00  4.30872e-01
6
# CELL(abcABC):  459.05226   459.05226   459.05226    90.00000    90.00000    90.00000  Step:          46  Bead:       0 x_centroid{angstrom}  cell{atomic_unit}
       C -2.49851e-01 -1.00562e-01  2.89458e-02
       O  8.04117e-01  2.40951e-01 -1.58901e-01
       H -5.44942e-01  8.26568e-01 -6.56074e-01
       H -4.29413e-01 -7.84774e-01  1.01262e+00
       L  9.72112e+01 -5.15026e-02  2.77849e+00
       L  5.92562e+00  9.24870e+00  3.10651e-01
6
# CELL(abcABC):  459.05226   459.05226   459.05226    90.00000    90.00000    90.00000  Step:          47  Bead:       0 x_centroid{angstrom}  cell{atomic_unit}
       C -2.46435e-01 -9.61349e-02  2.81371e-02
       O  8.05548e-01  2.36645e-01 -1.60032e-01
       H -5.97687e-01  8.24916e-01 -6.42889e-01
       H -4.41172e-01 -7.67963e-01  1.02703e+00
       L  9.91604e+01 -9.33334e-02  2.87010e+00
       L  5.98041e+00  1.00833e+01  1.89584e-01
6
# CELL(abcABC):  459.05226   459.05226   459.05226    90.00000    90.00000    90.00000  Step:          48  Bead:       0 x_centroid{angstrom}  cell{atomic_unit}
       C -2.43325e-01 -9.10525e-02  2.70374e-02
       O  8.07749e-01  2.31980e-01 -1.61089e-01
       H -6.57074e-01  8.19016e-01 -6.25997e-01
       H -4.54891e-01 -7.49069e-01  1.04002e+00
       L  1.01188e+02 -1.15823e-01  2.91698e+00
       L  5.99254e+00  1.10343e+01  1.64728e-01
6
# CELL(abcABC):  459.05226   459.05226   459.05226    90.00000    90.00000    90.00000  Step:          49  Bead:       0 x_centroid{angstrom}  cell{atomic_unit}
       C -2.40767e-01 -8.51615e-02  2.53488e-02
       O  8.10738e-01  2.26954e-01 -1.61942e-01
       H -7.22144e-01  8.08449e-01 -6.04100e-01
       H -4.68914e-01 -7.29483e-01  1.05181e+00
       L  1.03298e+02 -1.38142e-01  2.92496e+00
       L  6.01592e+00  1.20855e+01  1.05548e-01
6
# CELL(abcABC):  459.05226   459.05226   459.05226    90.00000    90.00000    90.00000  Step:          50  Bead:       0 x_centroid{angstrom}  cell{atomic_unit}
       C -2.39059e-01 -7.84657e-02  2.36935e-02
       O  8.14749e-01  2.21646e-01 -1.63024e-01
       H -7.91960e-01  7.91273e-01 -5.78398e-01
       H -4.84280e-01 -7.08425e-01  1.06308e+00
       L  1.05436e+02 -1.71173e-01  2.82412e+00
       L  6.02664e+00  1.31841e+01  6.13737e-02
6
# CELL(abcABC):  459.05226   459.05226   459.05226    90.00000    90.00000    90.00000  Step:          51  Bead:       0 x_centroid{angstrom}  cell{atomic_unit}
       C -2.38038e-01 -7.07859e-02  2.19775e-02
       O  8.19582e-01  2.15875e-01 -1.64118e-01
       H -8.65960e-01  7.69021e-01 -5.48608e-01
       H -5.00356e-01 -6.86685e-01  1.07118e+00
       L  1.07662e+02 -2.19444e-01  2.72274e+00
       L  5.99348e+00  1.43600e+01  5.49626e-02
6
# CELL(abcABC):  459.05226   459.05226   459.05226    90.00000    90.00000    90.00000  Step:          52  Bead:       0 x_centroid{angstrom}  cell{atomic_unit}
       C -2.37762e-01 -6.23120e-02  2.02515e-02
       O  8.25109e-01  2.09913e-01 -1.65209e-01
       H -9.41261e-01  7.40005e-01 -5.14759e-01
       H -5.17296e-01 -6.64671e-01  1.07530e+00
       L  1.09935e+02 -2.18245e-01  2.59061e+00
       L  5.95377e+00  1.55591e+01  1.41678e-02
6
# CELL(abcABC):  459.05226   459.05226   459.05226    90.00000    90.00000    90.00000  Step:          53  Bead:       0 x_centroid{angstrom}  cell{atomic_unit}
       C -2.38279e-01 -5.29460e-02  1.90471e-02
       O  8.31278e-01  2.03641e-01 -1.66512e-01
       H -1.01685e+00  7.04906e-01 -4.79075e-01
       H -5.34627e-01 -6.42285e-01  1.07474e+00
       L  1.12160e+02 -2.21526e-01  2.49889e+00
       L  5.87272e+00  1.67865e+01 -4.38915e-02
6
# CELL(abcABC):  459.05226   459.05226   459.05226    90.00000    90.00000    90.00000  Step:          54  Bead:       0 x_centroid{angstrom}  cell{atomic_unit}
       C -2.39596e-01 -4.32313e-02  1.88631e-02
       O  8.37864e-01  1.97242e-01 -1.68267e-01
       H -1.09077e+00  6.64915e-01 -4.42436e-01
       H -5.50738e-01 -6.17169e-01  1.06824e+00
       L  1.14457e+02 -2.54773e-01  2.35764e+00
       L  5.74426e+00  1.80757e+01 -9.33247e-02
6
# CELL(abcABC):  459.05226   459.05226   459.05226    90.00000    90.00000    90.00000  Step:          55  Bead:       0 x_centroid{angstrom}  cell{atomic_unit}
       C -2.41914e-01 -3.35753e-02  1.94629e-02
       O  8.45057e-01  1.91055e-01 -1.70197e-01
       H -1.16299e+00  6.20162e-01 -4.05260e-01
       H -5.66200e-01 -5.89997e-01  1.05466e+00
       L  1.16769e+02 -2.57377e-01  2.21388e+00
       L  5.51326e+00  1.94304e+01 -1.48565e-01
6
# CELL(abcABC):  459.05226   459.05226   459.05226    90.00000    90.00000    90.00000  Step:          56  Bead:       0 x_centroid{angstrom}  cell{atomic_unit}
       C -2.44691e-01 -2.41015e-02  2.11181e-02
       O  8.52406e-01  1.85025e-01 -1.72406e-01
       H -1.23282e+00  5.74014e-01 -3.69823e-01
       H -5.81063e-01 -5.61742e-01  1.03468e+00
       L  1.19132e+02 -2.66155e-01  2.07683e+00
       L  5.23842e+00  2.07634e+01 -2.22297e-01
6
# CELL(abcABC):  459.05226   459.05226   459.05226    90.00000    90.00000    90.00000  Step:          57  Bead:       0 x_centroid{angstrom}  cell{atomic_unit}
       C -2.47871e-01 -1.46815e-02  2.34738e-02
       O  8.59682e-01  1.79086e-01 -1.74718e-01
       H -1.29799e+00  5.27004e-01 -3.35694e-01
       H -5.94651e-01 -5.33421e-01  1.00930e+00
       L  1.21522e+02 -2.50791e-01  1.95128e+00
       L  4.93273e+00  2.20463e+01 -3.22221e-01
6
# CELL(abcABC):  459.05226   459.05226   459.05226    90.00000    90.00000    90.00000  Step:          58  Bead:       0 x_centroid{angstrom}  cell{atomic_unit}
       C -2.50627e-01 -5.50191e-03  2.71533e-02
       O  8.66382e-01  1.73392e-01 -1.77519e-01
       H -1.35936e+00  4.79674e-01 -3.04136e-01
       H -6.07964e-01 -5.05772e-01  9.78498e-01
       L  1.24016e+02 -2.52259e-01  1.75846e+00
       L  4.60454e+00  2.32891e+01 -3.72772e-01
6
# CELL(abcABC):  459.05226   459.05226   459.05226    90.00000    90.00000    90.00000  Step:          59  Bead:       0 x_centroid{angstrom}  cell{atomic_unit}
       C -2.52730e-01  3.39982e-03  3.17905e-02
       O  8.72250e-01  1.68003e-01 -1.80522e-01
       H -1.41649e+00  4.33331e-01 -2.76891e-01
       H -6.20153e-01 -4.80611e-01  9.43778e-01
       L  1.26638e+02 -2.54554e-01  1.57463e+00
       L  4.25034e+00  2.45014e+01 -3.85165e-01
6
# CELL(abcABC):  459.05226   459.05226   459.05226    90.00000    90.00000    90.00000  Step:          60  Bead:       0 x_centroid{angstrom}  cell{atomic_unit}
       C -2.54551e-01  1.23490e-02  3.73174e-02
       O  8.77285e-01  1.62581e-01 -1.83846e-01
       H -1.46647e+00  3.88993e-01 -2.54783e-01
       H -6.29656e-01 -4.57534e-01  9.08676e-01
       L  1.29340e+02 -2.46862e-01  1.38380e+00
       L  3.88505e+00  2.57352e+01 -4.00150e-01
6
# CELL(abcABC):  459.05226   459.05226   459.05226    90.00000    90.00000    90.00000  Step:          61  Bead:       0 x_centroid{angstrom}  cell{atomic_unit}
       C -2.56099e-01  2.13065e-02  4.32500e-02
       O  8.81542e-01  1.57210e-01 -1.87262e-01
       H -1.50849e+00  3.47486e-01 -2.37042e-01
       H -6.38079e-01 -4.38172e-01  8.74579e-01
       L  1.32075e+02 -2.37889e-01  1.18940e+00
       L  3.54044e+00  2.69673e+01 -3.97179e-01
6
# CELL(abcABC):  459.05226   459.05226   459.05226    90.00000    90.00000    90.00000  Step:          62  Bead:       0 x_centroid{angstrom}  cell{atomic_unit}
       C -2.57905e-01  3.04086e-02  4.89718e-02
       O  8.85387e-01  1.52024e-01 -1.90664e-01
       H -1.54215e+00  3.06169e-01 -2.24196e-01
       H -6.45262e-01 -4.23717e-01  8.47617e-01
       L  1.34862e+02 -2.21456e-01  9.99579e-01
       L  3.18416e+00  2.82477e+01 -3.45150e-01
6
# CELL(abcABC):  459.05226   459.05226   459.05226    90.00000    90.00000    90.00000  Step:          63  Bead:       0 x_centroid{angstrom}  cell{atomic_unit}
       C -2.60390e-01  3.98443e-02  5.43503e-02
       O  8.89030e-01  1.46911e-01 -1.94100e-01
       H -1.56575e+00  2.66189e-01 -2.16807e-01
       H -6.51173e-01 -4.15713e-01  8.30749e-01
       L  1.37659e+02 -1.89191e-01  8.20224e-01
       L  2.78370e+00  2.95023e+01 -2.79542e-01
6
# CELL(abcABC):  459.05226   459.05226   459.05226    90.00000    90.00000    90.00000  Step:          64  Bead:       0 x_centroid{angstrom}  cell{atomic_unit}
       C -2.63847e-01  4.93830e-02  5.93996e-02
       O  8.92641e-01  1.42015e-01 -1.97711e-01
       H -1.57798e+00  2.28926e-01 -2.16193e-01
       H -6.56325e-01 -4.15060e-01  8.27359e-01
       L  1.40377e+02 -1.47945e-01  6.08985e-01
       L  2.40005e+00  3.07014e+01 -2.08604e-01
6
# CELL(abcABC):  459.05226   459.05226   459.05226    90.00000    90.00000    90.00000  Step:          65  Bead:       0 x_centroid{angstrom}  cell{atomic_unit}
       C -2.68012e-01  5.87621e-02  6.40700e-02
       O  8.96134e-01  1.37451e-01 -2.01473e-01
       H -1.58056e+00  1.95806e-01 -2.20506e-01
       H -6.60852e-01 -4.21877e-01  8.35814e-01
       L  1.43107e+02 -1.20025e-01  3.61601e-01
       L  2.02902e+00  3.18053e+01 -1.07074e-01
6
# CELL(abcABC):  459.05226   459.05226   459.05226    90.00000    90.00000    90.00000  Step:          66  Bead:       0 x_centroid{angstrom}  cell{atomic_unit}
       C -2.72326e-01  6.75287e-02  6.87563e-02