6
# CELL(abcABC):  459.05226   459.05226   459.05226    90.00000    90.00000    90.00000  Step:           0  Bead:       0 x_centroid{angstrom}  cell{atomic_unit}
       C -3.39887e-01 -1.13437e-01  8.06659e-02
       O  8.43483e-01  2.62672e-01 -1.81512e-01
       H -7.35799e-02  8.16467e-01 -6.61432e-01
       H -4.30016e-01 -9.65701e-01  7.62278e-01
       L  6.13458e+01  0.00000e+00  0.00000e+00
       L  0.00000e+00  8.59064e+00  0.00000e+00
6
# CELL(abcABC):  459.05226   459.05226   459.05226    90.00000    90.00000    90.00000  Step:           1  Bead:       0 x_centroid{angstrom}  cell{atomic_unit}
       C -3.41068e-01 -1.12038e-01  8.13131e-02
       O  8.44378e-01  2.61670e-01 -1.82312e-01
       H -7.91030e-02  8.09324e-01 -6.55064e-01
       H -4.24401e-01 -9.59142e-01  7.61187e-01
       L  6.05548e+01 -2.20967e-01 -7.42499e-01
       L  3.70063e-01  8.44353e+00  1.83766e-01
6
# CELL(abcABC):  459.05226   459.05226   459.05226    90.00000    90.00000    90.00000  Step:           2  Bead:       0 x_centroid{angstrom}  cell{atomic_unit}
       C -3.41952e-01 -1.10526e-01  8.17708e-02
       O  8.44760e-01  2.60574e-01 -1.83060e-01
       H -8.00946e-02  8.03810e-01 -6.49045e-01
       H -4.18721e-01 -9.54045e-01  7.61897e-01
       L  5.98102e+01 -4.33318e-01 -1.48912e+00
       L  7.12249e-01  8.30776e+00  3.63791e-01
6
# CELL(abcABC):  459.05226   459.05226   459.05226    90.00000    90.00000    90.00000  Step:           3  Bead:       0 x_centroid{angstrom}  cell{atomic_unit}
       C -3.42773e-01 -1.09430e-01  8.21193e-02
       O  8.44634e-01  2.59671e-01 -1.83759e-01
       H -7.40388e-02  8.02037e-01 -6.44452e-01
       H -4.12821e-01 -9.50875e-01  7.64549e-01
       L  5.91172e+01 -5.97802e-01 -2.22382e+00
       L  1.09618e+00  8.22499e+00  5.58826e-01
6
# CELL(abcABC):  459.05226   459.05226   459.05226    90.00000    90.00000    90.00000  Step:           4  Bead:       0 x_centroid{angstrom}  cell{atomic_unit}
       C -3.43025e-01 -1.08420e-01  8.26792e-02
       O  8.43687e-01  2.58704e-01 -1.84643e-01
       H -6.29598e-02  8.03402e-01 -6.41721e-01
       H -4.05735e-01 -9.48815e-01  7.69465e-01
       L  5.84700e+01 -7.08769e-01 -2.90449e+00
       L  1.50384e+00  8.14918e+00  7.10045e-01
6
# CELL(abcABC):  459.05226   459.05226   459.05226    90.00000    90.00000    90.00000  Step:           5  Bead:       0 x_centroid{angstrom}  cell{atomic_unit}
       C -3.43436e-01 -1.07607e-01  8.32349e-02
       O  8.42906e-01  2.57752e-01 -1.85508e-01
       H -5.20363e-02  8.07754e-01 -6.40973e-01
       H -3.99208e-01 -9.47605e-01  7.76099e-01
       L  5.78218e+01 -8.24377e-01 -3.55294e+00
       L  1.85531e+00  8.01394e+00  8.56676e-01
6
# CELL(abcABC):  459.05226   459.05226   459.05226    90.00000    90.00000    90.00000  Step:           6  Bead:       0 x_centroid{angstrom}  cell{atomic_unit}
       C -3.44214e-01 -1.06845e-01  8.39247e-02
       O  8.42702e-01  2.56788e-01 -1.86429e-01
       H -4.46922e-02  8.12605e-01 -6.40691e-01
       H -3.93829e-01 -9.46097e-01  7.82461e-01
       L  5.71650e+01 -9.27944e-01 -4.14242e+00
       L  2.13489e+00  7.86634e+00  9.98749e-01
6
# CELL(abcABC):  459.05226   459.05226   459.05226    90.00000    90.00000    90.00000  Step:           7  Bead:       0 x_centroid{angstrom}  cell{atomic_unit}
       C -3.45472e-01 -1.06532e-01  8.47424e-02
       O  8.43466e-01  2.56175e-01 -1.87402e-01
       H -4.40904e-02  8.17702e-01 -6.39797e-01
       H -3.91340e-01 -9.45067e-01  7.87451e-01
       L  5.64848e+01 -1.03645e+00 -4.67415e+00
       L  2.39368e+00  7.71810e+00  1.17696e+00
6
# CELL(abcABC):  459.05226   459.05226   459.05226    90.00000    90.00000    90.00000  Step:           8  Bead:       0 x_centroid{angstrom}  cell{atomic_unit}
       C -3.47379e-01 -1.06558e-01  8.57126e-02
       O  8.45149e-01  2.55831e-01 -1.88265e-01
       H -4.84676e-02  8.20711e-01 -6.39838e-01
       H -3.90696e-01 -9.42169e-01  7.89811e-01
       L  5.57242e+01 -1.06940e+00 -5.17292e+00
       L  2.66703e+00  7.51730e+00  1.36465e+00
6
# CELL(abcABC):  459.05226   459.05226   459.05226    90.00000    90.00000    90.00000  Step:           9  Bead:       0 x_centroid{angstrom}  cell{atomic_unit}
       C -3.49181e-01 -1.06346e-01  8.69392e-02
       O  8.46899e-01  2.55389e-01 -1.89283e-01
       H -5.32487e-02  8.22208e-01 -6.39623e-01
       H -3.91947e-01 -9.38998e-01  7.91291e-01
       L  5.50105e+01 -1.13056e+00 -5.68920e+00
       L  2.91243e+00  7.25696e+00  1.57815e+00
6
# CELL(abcABC):  459.05226   459.05226   459.05226    90.00000    90.00000    90.00000  Step:          10  Bead:       0 x_centroid{angstrom}  cell{atomic_unit}
       C -3.50988e-01 -1.06132e-01  8.82863e-02
       O  8.48420e-01  2.54991e-01 -1.90167e-01
       H -5.39036e-02  8.23767e-01 -6.42744e-01
       H -3.93626e-01 -9.36619e-01  7.92554e-01
       L  5.42944e+01 -1.14374e+00 -6.17242e+00
       L  3.11448e+00  6.97600e+00  1.78231e+00
6
# CELL(abcABC):  459.05226   459.05226   459.05226    90.00000    90.00000    90.00000  Step:          11  Bead:       0 x_centroid{angstrom}  cell{atomic_unit}
       C -3.52394e-01 -1.05794e-01  8.94418e-02
       O  8.49286e-01  2.54636e-01 -1.90896e-01
       H -4.87377e-02  8.23669e-01 -6.45814e-01
       H -3.95456e-01 -9.34744e-01  7.93607e-01
       L  5.35375e+01 -1.18099e+00 -6.70026e+00
       L  3.27346e+00  6.69244e+00  1.96864e+00
6
# CELL(abcABC):  459.05226   459.05226   459.05226    90.00000    90.00000    90.00000  Step:          12  Bead:       0 x_centroid{angstrom}  cell{atomic_unit}
       C -3.53777e-01 -1.05364e-01  9.07233e-02
       O  8.49708e-01  2.54291e-01 -1.91834e-01
       H -3.68710e-02  8.23205e-01 -6.48506e-01
       H -3.97242e-01 -9.33762e-01  7.96078e-01
       L  5.27935e+01 -1.15656e+00 -7.16234e+00
       L  3.42892e+00  6.35909e+00  2.15192e+00
6
# CELL(abcABC):  459.05226   459.05226   459.05226    90.00000    90.00000    90.00000  Step:          13  Bead:       0 x_centroid{angstrom}  cell{atomic_unit}
       C -3.55098e-01 -1.04737e-01  9.22223e-02
       O  8.49763e-01  2.53836e-01 -1.92933e-01
       H -2.08354e-02  8.21810e-01 -6.51431e-01
       H -3.98044e-01 -9.32428e-01  7.98705e-01
       L  5.20457e+01 -1.12855e+00 -7.57986e+00
       L  3.54020e+00  5.99341e+00  2.33758e+00
6
# CELL(abcABC):  459.05226   459.05226   459.05226    90.00000    90.00000    90.00000  Step:          14  Bead:       0 x_centroid{angstrom}  cell{atomic_unit}
       C -3.56505e-01 -1.04558e-01  9.40123e-02
       O  8.49888e-01  2.53678e-01 -1.94272e-01
       H -5.26053e-03  8.19780e-01 -6.52785e-01
       H -3.98458e-01 -9.29851e-01  8.00108e-01
       L  5.12402e+01 -1.06978e+00 -7.97358e+00
       L  3.64010e+00  5.60299e+00  2.51754e+00
6
# CELL(abcABC):  459.05226   459.05226   459.05226    90.00000    90.00000    90.00000  Step:          15  Bead:       0 x_centroid{angstrom}  cell{atomic_unit}
       C -3.58213e-01 -1.04646e-01  9.61122e-02
       O  8.50457e-01  2.53692e-01 -1.95785e-01
       H  8.16713e-03  8.17332e-01 -6.54374e-01
       H -4.00112e-01 -9.26427e-01  8.00730e-01
       L  5.03892e+01 -9.59022e-01 -8.24269e+00
       L  3.66729e+00  5.22088e+00  2.70965e+00
6
# CELL(abcABC):  459.05226   459.05226   459.05226    90.00000    90.00000    90.00000  Step:          16  Bead:       0 x_centroid{angstrom}  cell{atomic_unit}
       C -3.60529e-01 -1.04632e-01  9.85779e-02
       O  8.51752e-01  2.53699e-01 -1.97389e-01
       H  1.73218e-02  8.13715e-01 -6.58006e-01
       H -4.01738e-01 -9.22944e-01  8.00444e-01
       L  4.94776e+01 -7.59366e-01 -8.40671e+00
       L  3.67109e+00  4.77070e+00  2.86687e+00
6
# CELL(abcABC):  459.05226   459.05226   459.05226    90.00000    90.00000    90.00000  Step:          17  Bead:       0 x_centroid{angstrom}  cell{atomic_unit}
       C -3.63280e-01 -1.05044e-01  1.01177e-01
       O  8.53735e-01  2.53883e-01 -1.99086e-01
       H  2.26275e-02  8.11136e-01 -6.61978e-01
       H -4.05242e-01 -9.18228e-01  8.00329e-01
       L  4.85298e+01 -5.38959e-01 -8.47660e+00
       L  3.68692e+00  4.28065e+00  3.03291e+00
6
# CELL(abcABC):  459.05226   459.05226   459.05226    90.00000    90.00000    90.00000  Step:          18  Bead:       0 x_centroid{angstrom}  cell{atomic_unit}
       C -3.66292e-01 -1.05596e-01  1.03800e-01
       O  8.56161e-01  2.54138e-01 -2.00816e-01
       H  2.58209e-02  8.10274e-01 -6.67102e-01
       H -4.10427e-01 -9.14693e-01  8.01531e-01
       L  4.74804e+01 -3.44479e-01 -8.42865e+00
       L  3.61173e+00  3.79432e+00  3.21247e+00
6
# CELL(abcABC):  459.05226   459.05226   459.05226    90.00000    90.00000    90.00000  Step:          19  Bead:       0 x_centroid{angstrom}  cell{atomic_unit}
       C -3.69451e-01 -1.06096e-01  1.06530e-01
       O  8.58749e-01  2.54307e-01 -2.02715e-01
       H  2.91939e-02  8.12155e-01 -6.74497e-01
       H -4.16601e-01 -9.13180e-01  8.06401e-01
       L  4.64367e+01 -1.31543e-01 -8.33590e+00
       L  3.47134e+00  3.37779e+00  3.35780e+00
6
# CELL(abcABC):  459.05226   459.05226   459.05226    90.00000    90.00000    90.00000  Step:          20  Bead:       0 x_centroid{angstrom}  cell{atomic_unit}
       C -3.72479e-01 -1.06472e-01  1.09070e-01
       O  8.61017e-01  2.54409e-01 -2.04634e-01
       H  3.60292e-02  8.15445e-01 -6.81962e-01
       H -4.22672e-01 -9.13557e-01  8.13921e-01
       L  4.53636e+01  1.27745e-01 -8.17113e+00
       L  3.30493e+00  3.02984e+00  3.45173e+00
6
# CELL(abcABC):  459.05226   459.05226   459.05226    90.00000    90.00000    90.00000  Step:          21  Bead:       0 x_centroid{angstrom}  cell{atomic_unit}
       C -3.75664e-01 -1.06795e-01  1.11238e-01
       O  8.62888e-01  2.54455e-01 -2.06224e-01
       H  4.97525e-02  8.20620e-01 -6.91192e-01
       H -4.27441e-01 -9.15607e-01  8.22419e-01
       L  4.42679e+01  3.97226e-01 -7.96131e+00
       L  3.11186e+00  2.71580e+00  3.52072e+00
6
# CELL(abcABC):  459.05226   459.05226   459.05226    90.00000    90.00000    90.00000  Step:          22  Bead:       0 x_centroid{angstrom}  cell{atomic_unit}
       C -3.78783e-01 -1.07049e-01  1.13273e-01
       O  8.64371e-01  2.54426e-01 -2.07737e-01
       H  6.83361e-02  8.26794e-01 -7.01835e-01
       H -4.31682e-01 -9.18295e-01  8.32635e-01
       L  4.31375e+01  7.05086e-01 -7.71454e+00
       L  2.92587e+00  2.41730e+00  3.60912e+00
6
# CELL(abcABC):  459.05226   459.05226   459.05226    90.00000    90.00000    90.00000  Step:          23  Bead:       0 x_centroid{angstrom}  cell{atomic_unit}
       C -3.81723e-01 -1.07261e-01  1.15375e-01
       O  8.65689e-01  2.54338e-01 -2.09261e-01
       H  8.80258e-02  8.32686e-01 -7.11663e-01
       H -4.36496e-01 -9.20254e-01  8.41390e-01
       L  4.19608e+01  1.00530e+00 -7.40390e+00
       L  2.69458e+00  2.09540e+00  3.72632e+00
6
# CELL(abcABC):  459.05226   459.05226   459.05226    90.00000    90.00000    90.00000  Step:          24  Bead:       0 x_centroid{angstrom}  cell{atomic_unit}
       C -3.85008e-01 -1.07912e-01  1.17798e-01
       O  8.67080e-01  2.54670e-01 -2.11071e-01
       H  1.10387e-01  8.36964e-01 -7.19263e-01
       H -4.40963e-01 -9.22059e-01  8.48567e-01
       L  4.07393e+01  1.33321e+00 -7.04728e+00
       L  2.39191e+00  1.79488e+00  3.84585e+00
6
# CELL(abcABC):  459.05226   459.05226   459.05226    90.00000    90.00000    90.00000  Step:          25  Bead:       0 x_centroid{angstrom}  cell{atomic_unit}
       C -3.88843e-01 -1.08368e-01  1.20636e-01
       O  8.68806e-01  2.55009e-01 -2.13259e-01
       H  1.33911e-01  8.38668e-01 -7.24910e-01
       H -4.45309e-01 -9.23726e-01  8.54895e-01
       L  3.94398e+01  1.68666e+00 -6.65661e+00
       L  2.07229e+00  1.48590e+00  3.90601e+00
6
# CELL(abcABC):  459.05226   459.05226   459.05226    90.00000    90.00000    90.00000  Step:          26  Bead:       0 x_centroid{angstrom}  cell{atomic_unit}
       C -3.93364e-01 -1.09029e-01  1.23583e-01
       O  8.70939e-01  2.55497e-01 -2.15477e-01
       H  1.59004e-01  8.38624e-01 -7.30382e-01
       H -4.49432e-01 -9.23540e-01  8.60195e-01
       L  3.80345e+01  2.04019e+00 -6.20319e+00
       L  1.74720e+00  1.11492e+00  3.92276e+00
6
# CELL(abcABC):  459.05226   459.05226   459.05226    90.00000    90.00000    90.00000  Step:          27  Bead:       0 x_centroid{angstrom}  cell{atomic_unit}
       C -3.98471e-01 -1.10256e-01  1.26864e-01
       O  8.73471e-01  2.56434e-01 -2.17865e-01
       H  1.84759e-01  8.37016e-01 -7.35925e-01
       H -4.53472e-01 -9.22170e-01  8.64261e-01
       L  3.64763e+01  2.34180e+00 -5.67461e+00
       L  1.35171e+00  7.76602e-01  3.94124e+00
6
# CELL(abcABC):  459.05226   459.05226   459.05226    90.00000    90.00000    90.00000  Step:          28  Bead:       0 x_centroid{angstrom}  cell{atomic_unit}
       C -4.04073e-01 -1.11542e-01  1.30504e-01
       O  8.76226e-01  2.57394e-01 -2.20473e-01
       H  2.12397e-01  8.35331e-01 -7.41283e-01
       H -4.56954e-01 -9.20352e-01  8.67291e-01
       L  3.48053e+01  2.58520e+00 -5.07626e+00
       L  9.42290e-01  4.29164e-01  3.97761e+00
6
# CELL(abcABC):  459.05226   459.05226   459.05226    90.00000    90.00000    90.00000  Step:          29  Bead:       0 x_centroid{angstrom}  cell{atomic_unit}
       C -4.10131e-01 -1.13218e-01  1.34220e-01
       O  8.79179e-01  2.58533e-01 -2.23169e-01
       H  2.42082e-01  8.35333e-01 -7.46679e-01
       H -4.60117e-01 -9.18445e-01  8.70863e-01
       L  3.30193e+01  2.83584e+00 -4.41419e+00
       L  4.85355e-01  1.56032e-01  3.93522e+00
6
# CELL(abcABC):  459.05226   459.05226   459.05226    90.00000    90.00000    90.00000  Step:          30  Bead:       0 x_centroid{angstrom}  cell{atomic_unit}
       C -4.16567e-01 -1.15311e-01  1.38056e-01
       O  8.82141e-01  2.59874e-01 -2.25990e-01
       H  2.74928e-01  8.36491e-01 -7.52775e-01
       H -4.61988e-01 -9.15906e-01  8.75703e-01
       L  3.11277e+01  3.05283e+00 -3.68281e+00
       L  1.10949e-02 -1.36802e-01  3.80014e+00
6
# CELL(abcABC):  459.05226   459.05226   459.05226    90.00000    90.00000    90.00000  Step:          31  Bead:       0 x_centroid{angstrom}  cell{atomic_unit}
       C -4.22944e-01 -1.17598e-01  1.41907e-01
       O  8.84652e-01  2.61192e-01 -2.28823e-01
       H  3.12032e-01  8.40880e-01 -7.59302e-01
       H -4.61640e-01 -9.13933e-01  8.80939e-01
       L  2.91517e+01  3.21609e+00 -2.87470e+00
       L -4.50439e-01 -3.46690e-01  3.65979e+00
6
# CELL(abcABC):  459.05226   459.05226   459.05226    90.00000    90.00000    90.00000  Step:          32  Bead:       0 x_centroid{angstrom}  cell{atomic_unit}
       C -4.29504e-01 -1.20113e-01  1.45803e-01
       O  8.86982e-01  2.62474e-01 -2.31696e-01
       H  3.52544e-01  8.48825e-01 -7.68141e-01
       H -4.59612e-01 -9.12214e-01  8.88643e-01
       L  2.71575e+01  3.28183e+00 -2.04261e+00
       L -9.48032e-01 -5.08624e-01  3.42709e+00
6
# CELL(abcABC):  459.05226   459.05226   459.05226    90.00000    90.00000    90.00000  Step:          33  Bead:       0 x_centroid{angstrom}  cell{atomic_unit}
       C -4.36101e-01 -1.22461e-01  1.49470e-01
       O  8.88961e-01  2.63235e-01 -2.34530e-01
       H  3.94806e-01  8.62366e-01 -7.79250e-01
       H -4.53322e-01 -9.09728e-01  9.00712e-01
       L  2.51463e+01  3.22167e+00 -1.17970e+00
       L -1.40954e+00 -6.56170e-01  3.14250e+00
6
# CELL(abcABC):  459.05226   459.05226   459.05226    90.00000    90.00000    90.00000  Step:          34  Bead:       0 x_centroid{angstrom}  cell{atomic_unit}
       C -4.42558e-01 -1.24818e-01  1.52684e-01
       O  8.90579e-01  2.63877e-01 -2.36982e-01
       H  4.38237e-01  8.79012e-01 -7.92438e-01
       H -4.44138e-01 -9.08381e-01  9.14272e-01
       L  2.30782e+01  3.14853e+00 -3.48234e-01
       L -1.84204e+00 -7.58288e-01  2.77469e+00
6
# CELL(abcABC):  459.05226   459.05226   459.05226    90.00000    90.00000    90.00000  Step:          35  Bead:       0 x_centroid{angstrom}  cell{atomic_unit}
       C -4.48899e-01 -1.27413e-01  1.56078e-01
       O  8.91854e-01  2.64586e-01 -2.39502e-01
       H  4.82695e-01  8.97841e-01 -8.07328e-01
       H -4.31882e-01 -9.07437e-01  9.28485e-01
       L  2.09358e+01  3.05229e+00  4.80354e-01
       L -2.23625e+00 -8.63704e-01  2.39217e+00
6
# CELL(abcABC):  459.05226   459.05226   459.05226    90.00000    90.00000    90.00000  Step:          36  Bead:       0 x_centroid{angstrom}  cell{atomic_unit}
       C -4.54941e-01 -1.30003e-01  1.59341e-01
       O  8.92752e-01  2.65281e-01 -2.41800e-01
       H  5.28160e-01  9.16868e-01 -8.22974e-01
       H -4.18195e-01 -9.06510e-01  9.41499e-01
       L  1.86685e+01  2.93108e+00  1.31696e+00
       L -2.59825e+00 -9.84642e-01  1.95406e+00
6
# CELL(abcABC):  459.05226   459.05226   459.05226    90.00000    90.00000    90.00000  Step:          37  Bead:       0 x_centroid{angstrom}  cell{atomic_unit}
       C -4.61173e-01 -1.32552e-01  1.62939e-01
       O  8.93788e-01  2.66080e-01 -2.44213e-01
       H  5.72805e-01  9.33837e-01 -8.38852e-01
       H -4.03562e-01 -9.05650e-01  9.52597e-01
       L  1.63643e+01  2.80991e+00  2.13900e+00
       L -2.97125e+00 -1.09823e+00  1.51466e+00
6
# CELL(abcABC):  459.05226   459.05226   459.05226    90.00000    90.00000    90.00000  Step:          38  Bead:       0 x_centroid{angstrom}  cell{atomic_unit}
       C -4.67515e-01 -1.35411e-01  1.66634e-01
       O  8.94717e-01  2.67158e-01 -2.46387e-01
       H  6.17555e-01  9.48569e-01 -8.56147e-01
       H -3.86043e-01 -9.03263e-01  9.60182e-01
       L  1.40298e+01  2.64924e+00  2.99559e+00
       L -3.27864e+00 -1.25138e+00  1.01244e+00
6
# CELL(abcABC):  459.05226   459.05226   459.05226    90.00000    90.00000    90.00000  Step:          39  Bead:       0 x_centroid{angstrom}  cell{atomic_unit}
       C -4.73769e-01 -1.38182e-01  1.70483e-01
       O  8.95628e-01  2.68380e-01 -2.48462e-01
       H  6.61962e-01  9.59700e-01 -8.72933e-01
       H -3.68988e-01 -9.00547e-01  9.63893e-01
       L  1.16867e+01  2.46673e+00  3.79393e+00
       L -3.51374e+00 -1.48952e+00  4.90887e-01
6
# CELL(abcABC):  459.05226   459.05226   459.05226    90.00000    90.00000    90.00000  Step:          40  Bead:       0 x_centroid{angstrom}  cell{atomic_unit}
       C -4.80297e-01 -1.41111e-01  1.74346e-01
       O  8.96743e-01  2.69977e-01 -2.50370e-01
       H  7.06415e-01  9.66018e-01 -8.88102e-01
       H -3.51946e-01 -8.97045e-01  9.63193e-01
       L  9.33057e+00  2.25007e+00  4.51268e+00
       L -3.72213e+00 -1.76078e+00  8.32529e-03
6
# CELL(abcABC):  459.05226   459.05226   459.05226    90.00000    90.00000    90.00000  Step:          41  Bead:       0 x_centroid{angstrom}  cell{atomic_unit}
       C -4.87032e-01 -1.43881e-01  1.78007e-01
       O  8.98153e-01  2.71916e-01 -2.51898e-01
       H  7.48170e-01  9.65605e-01 -9.02621e-01
       H -3.34422e-01 -8.94089e-01  9.58239e-01
       L  6.94092e+00  2.04512e+00  5.19941e+00
       L -3.90454e+00 -2.11373e+00 -4.88208e-01
6
# CELL(abcABC):  459.05226   459.05226   459.05226    90.00000    90.00000    90.00000  Step:          42  Bead:       0 x_centroid{angstrom}  cell{atomic_unit}
       C -4.93716e-01 -1.46601e-01  1.81623e-01
       O  8.99642e-01  2.74263e-01 -2.53302e-01
       H  7.87597e-01  9.59151e-01 -9.16017e-01
       H -3.16437e-01 -8.92142e-01  9.50715e-01
       L  4.50588e+00  1.80724e+00  5.84410e+00
       L -4.06184e+00 -2.51237e+00 -9.43306e-01
6
# CELL(abcABC):  459.05226   459.05226   459.05226    90.00000    90.00000    90.00000  Step:          43  Bead:       0 x_centroid{angstrom}  cell{atomic_unit}
       C -4.99901e-01 -1.49371e-01  1.84906e-01
       O  9.00989e-01  2.76903e-01 -2.54402e-01
       H  8.24538e-01  9.49461e-01 -9.28884e-01
       H -2.99624e-01 -8.90944e-01  9.41845e-01
       L  2.00878e+00  1.52941e+00  6.43588e+00
       L -4.18649e+00 -2.97156e+00 -1.38613e+00
6
# CELL(abcABC):  459.05226   459.05226   459.05226    90.00000    90.00000    90.00000  Step:          44  Bead:       0 x_centroid{angstrom}  cell{atomic_unit}
       C -5.05434e-01 -1.51804e-01  1.87998e-01
       O  9.02035e-01  2.79378e-01 -2.55335e-01
       H  8.58395e-01  9.37283e-01 -9.41683e-01
       H -2.82785e-01 -8.88697e-01  9.32523e-01
       L -4.85578e-01  1.28268e+00  7.00499e+00
       L -4.22531e+00 -3.38238e+00 -1.78172e+00
6
# CELL(abcABC):  459.05226   459.05226   459.05226    90.00000    90.00000    90.00000  Step:          45  Bead:       0 x_centroid{angstrom}  cell{atomic_unit}
       C -5.10032e-01 -1.53356e-01  1.90720e-01
       O  9.02361e-01  2.81325e-01 -2.56157e-01
       H  8.90504e-01  9.24831e-01 -9.53227e-01
       H -2.63888e-01 -8.88320e-01  9.24608e-01
       L -3.03611e+00  1.02485e+00  7.51282e+00
       L -4.22138e+00 -3.77314e+00 -2.17136e+00
6
# CELL(abcABC):  459.05226   459.05226   459.05226    90.00000    90.00000    90.00000  Step:          46  Bead:       0 x_centroid{angstrom}  cell{atomic_unit}
       C -5.13616e-01 -1.54336e-01  1.92732e-01
       O  9.01851e-01  2.82910e-01 -2.56625e-01
       H  9.21640e-01  9.13033e-01 -9.64242e-01
       H -2.42875e-01 -8.89628e-01  9.19034e-01
       L -5.55456e+00  7.52392e-01  7.98621e+00
       L -4.18809e+00 -4.18689e+00 -2.54755e+00
6
# CELL(abcABC):  459.05226   459.05226   459.05226    90.00000    90.00000    90.00000  Step:          47  Bead:       0 x_centroid{angstrom}  cell{atomic_unit}
       C -5.16158e-01 -1.54651e-01  1.94035e-01
       O  9.00546e-01  2.83890e-01 -2.56785e-01
       H  9.50801e-01  9.03318e-01 -9.75625e-01
       H -2.19740e-01 -8.91343e-01  9.17389e-01
       L -8.05402e+00  4.29299e-01  8.40110e+00
       L -4.03134e+00 -4.54358e+00 -2.88531e+00
6
# CELL(abcABC):  459.05226   459.05226   459.05226    90.00000    90.00000    90.00000  Step:          48  Bead:       0 x_centroid{angstrom}  cell{atomic_unit}
       C -5.17594e-01 -1.54193e-01  1.94613e-01
       O  8.98394e-01  2.84215e-01 -2.56547e-01
       H  9.77620e-01  8.96372e-01 -9.86969e-01
       H -1.93975e-01 -8.94658e-01  9.18014e-01
       L -1.06168e+01  9.40365e-02  8.74543e+00
       L -3.89327e+00 -4.86791e+00 -3.14267e+00
6
# CELL(abcABC):  459.05226   459.05226   459.05226    90.00000    90.00000    90.00000  Step:          49  Bead:       0 x_centroid{angstrom}  cell{atomic_unit}
       C -5.17911e-01 -1.53090e-01  1.94595e-01
       O  8.95550e-01  2.83948e-01 -2.56117e-01
       H  1.00145e+00  8.92052e-01 -9.97207e-01
       H -1.67586e-01 -8.98974e-01  9.21596e-01
       L -1.31910e+01 -1.40535e-01  9.03987e+00
       L -3.72500e+00 -5.09970e+00 -3.35347e+00
6
# CELL(abcABC):  459.05226   459.05226   459.05226    90.00000    90.00000    90.00000  Step:          50  Bead:       0 x_centroid{angstrom}  cell{atomic_unit}
       C -5.17253e-01 -1.52059e-01  1.94032e-01
       O  8.92210e-01  2.83599e-01 -2.55450e-01
       H  1.02092e+00  8.88929e-01 -1.00568e+00
       H -1.40588e-01 -9.02370e-01  9.26204e-01
       L -1.57547e+01 -3.28144e-01  9.22608e+00
       L -3.51345e+00 -5.32726e+00 -3.56548e+00
6
# CELL(abcABC):  459.05226   459.05226   459.05226    90.00000    90.00000    90.00000  Step:          51  Bead:       0 x_centroid{angstrom}  cell{atomic_unit}
       C -5.16143e-01 -1.50484e-01  1.93075e-01
       O  8.88814e-01  2.82840e-01 -2.54635e-01
       H  1.03556e+00  8.84842e-01 -1.01106e+00
       H -1.13289e-01 -9.04813e-01  9.30033e-01
       L -1.82694e+01 -5.06943e-01  9.42799e+00
       L -3.29929e+00 -5.50777e+00 -3.73476e+00
6
# CELL(abcABC):  459.05226   459.05226   459.05226    90.00000    90.00000    90.00000  Step:          52  Bead:       0 x_centroid{angstrom}  cell{atomic_unit}
       C -5.14177e-01 -1.48861e-01  1.91767e-01
       O  8.85192e-01  2.82033e-01 -2.53714e-01
       H  1.04443e+00  8.79395e-01 -1.01370e+00
       H -8.68952e-02 -9.05708e-01  9.33634e-01
       L -2.07841e+01 -6.82748e-01  9.56722e+00
       L -3.00308e+00 -5.67610e+00 -3.84612e+00
6
# CELL(abcABC):  459.05226   459.05226   459.05226    90.00000    90.00000    90.00000  Step:          53  Bead:       0 x_centroid{angstrom}  cell{atomic_unit}
       C -5.11380e-01 -1.47737e-01  1.90468e-01
       O  8.81343e-01  2.81614e-01 -2.52802e-01
       H  1.04863e+00  8.71315e-01 -1.01485e+00
       H -6.21319e-02 -9.04147e-01  9.35810e-01
       L -2.33355e+01 -8.22501e-01  9.57449e+00
       L -2.64211e+00 -5.94260e+00 -3.91370e+00
6
# CELL(abcABC):  459.05226   459.05226   459.05226    90.00000    90.00000    90.00000  Step:          54  Bead:       0 x_centroid{angstrom}  cell{atomic_unit}
       C -5.07939e-01 -1.46402e-01  1.89090e-01
       O  8.77558e-01  2.81131e-01 -2.51933e-01
       H  1.04758e+00  8.60217e-01 -1.01237e+00
       H -4.08107e-02 -9.01083e-01  9.36083e-01
       L -2.59581e+01 -9.48492e-01  9.50014e+00
       L -2.21865e+00 -6.20980e+00 -4.05765e+00
6
# CELL(abcABC):  459.05226   459.05226   459.05226    90.00000    90.00000    90.00000  Step:          55  Bead:       0 x_centroid{angstrom}  cell{atomic_unit}
       C -5.03732e-01 -1.45333e-01  1.87930e-01
       O  8.73914e-01  2.80815e-01 -2.51141e-01
       H  1.03985e+00  8.46130e-01 -1.00833e+00
       H -2.41633e-02 -8.94462e-01  9.33424e-01
       L -2.85912e+01 -1.11032e+00  9.33940e+00
       L -1.79705e+00 -6.51198e+00 -4.14573e+00
6
# CELL(abcABC):  459.05226   459.05226   459.05226    90.00000    90.00000    90.00000  Step:          56  Bead:       0 x_centroid{angstrom}  cell{atomic_unit}
       C -4.98657e-01 -1.44232e-01  1.86550e-01
       O  8.70184e-01  2.80453e-01 -2.50045e-01
       H  1.02603e+00  8.29395e-01 -1.00328e+00
       H -1.04241e-02 -8.84868e-01  9.27540e-01
       L -3.12230e+01 -1.25367e+00  9.11394e+00
       L -1.35604e+00 -6.81091e+00 -4.16279e+00
6
# CELL(abcABC):  459.05226   459.05226   459.05226    90.00000    90.00000    90.00000  Step:          57  Bead:       0 x_centroid{angstrom}  cell{atomic_unit}
       C -4.92813e-01 -1.43426e-01  1.85311e-01
       O  8.66492e-01  2.80203e-01 -2.48904e-01
       H  1.00704e+00  8.13196e-01 -9.97621e-01
       H -1.24037e-03 -8.74023e-01  9.18695e-01
       L -3.38817e+01 -1.38891e+00  8.80572e+00
       L -9.68667e-01 -7.16600e+00 -4.13192e+00
6
# CELL(abcABC):  459.05226   459.05226   459.05226    90.00000    90.00000    90.00000  Step:          58  Bead:       0 x_centroid{angstrom}  cell{atomic_unit}
       C -4.86013e-01 -1.42651e-01  1.83780e-01
       O  8.62459e-01  2.79714e-01 -2.47440e-01
       H  9.86189e-01  7.98878e-01 -9.93192e-01
       H  3.85113e-03 -8.60913e-01  9.09426e-01
       L -3.65226e+01 -1.51037e+00  8.43313e+00
       L -6.00175e-01 -7.53475e+00 -4.05419e+00
6
# CELL(abcABC):  459.05226   459.05226   459.05226    90.00000    90.00000    90.00000  Step:          59  Bead:       0 x_centroid{angstrom}  cell{atomic_unit}
       C -4.77957e-01 -1.42053e-01  1.82342e-01
       O  8.57824e-01  2.79006e-01 -2.45718e-01
       H  9.62693e-01  7.87662e-01 -9.92570e-01
       H  6.14389e-03 -8.45323e-01  8.98796e-01
       L -3.91886e+01 -1.61111e+00  8.00123e+00
       L -1.87335e-01 -7.90921e+00 -3.97560e+00
6
# CELL(abcABC):  459.05226   459.05226   459.05226    90.00000    90.00000    90.00000  Step:          60  Bead:       0 x_centroid{angstrom}  cell{atomic_unit}
       C -4.68781e-01 -1.41414e-01  1.80840e-01
       O  8.52691e-01  2.77942e-01 -2.43580e-01
       H  9.37701e-01  7.81656e-01 -9.98286e-01
       H  4.48727e-03 -8.29786e-01  8.88666e-01
       L -4.18392e+01 -1.70080e+00  7.52536e+00
       L  2.56102e-01 -8.29903e+00 -3.84926e+00
6
# CELL(abcABC):  459.05226   459.05226   459.05226    90.00000    90.00000    90.00000  Step:          61  Bead:       0 x_centroid{angstrom}  cell{atomic_unit}
       C -4.58677e-01 -1.40470e-01  1.79344e-01
       O  8.47042e-01  2.76420e-01 -2.41244e-01
       H  9.11794e-01  7.79503e-01 -1.00849e+00
       H  8.39727e-04 -8.14521e-01  8.79847e-01
       L -4.44558e+01 -1.70060e+00  6.98266e+00
       L  6.92833e-01 -8.67183e+00 -3.72646e+00
6
# CELL(abcABC):  459.05226   459.05226   459.05226    90.00000    90.00000    90.00000  Step:          62  Bead:       0 x_centroid{angstrom}  cell{atomic_unit}
       C -4.47762e-01 -1.39319e-01  1.77602e-01
       O  8.40968e-01  2.74747e-01 -2.38696e-01
       H  8.84995e-01  7.80505e-01 -1.02182e+00
       H -4.80675e-03 -8.02479e-01  8.73739e-01
       L -4.71206e+01 -1.69963e+00  6.36156e+00
       L  1.16491e+00 -9.05499e+00 -3.56717e+00
6
# CELL(abcABC):  459.05226   459.05226   459.05226    90.00000    90.00000    90.00000  Step:          63  Bead:       0 x_centroid{angstrom}  cell{atomic_unit}
       C -4.36407e-01 -1.37418e-01  1.75273e-01
       O  8.34817e-01  2.72583e-01 -2.35868e-01
       H  8.56472e-01  7.82945e-01 -1.03611e+00
       H -1.27215e-02 -7.92949e-01  8.71166e-01
       L -4.98132e+01 -1.66962e+00  5.68102e+00
       L  1.56934e+00 -9.58991e+00 -3.37287e+00
6
# CELL(abcABC):  459.05226   459.05226   459.05226    90.00000    90.00000    90.00000  Step:          64  Bead:       0 x_centroid{angstrom}  cell{atomic_unit}
       C -4.24464e-01 -1.35274e-01  1.72303e-01
       O  8.28342e-01  2.70459e-01 -2.32742e-01
       H  8.25958e-01  7.84929e-01 -1.05032e+00
       H -2.04846e-02 -7.86461e-01  8.71418e-01
       L -5.24976e+01 -1.67179e+00  4.94500e+00
       L  1.94187e+00 -1.01245e+01 -3.14257e+00
6
# CELL(abcABC):  459.05226   459.05226   459.05226    90.00000    90.00000    90.00000  Step:          65  Bead:       0 x_centroid{angstrom}  cell{atomic_unit}
       C -4.12310e-01 -1.32749e-01  1.69127e-01
       O  8.21786e-01  2.68446e-01 -2.29914e-01
       H  7.95587e-01  7.84851e-01 -1.06170e+00
       H -2.95807e-02 -7.84276e-01  8.76041e-01
       L -5.51861e+01 -1.62614e+00  4.16792e+00
       L  2.26529e+00 -1.06554e+01 -2.89467e+00
6
# CELL(abcABC):  459.05226   459.05226   459.05226    90.00000    90.00000    90.00000  Step:          66  Bead:       0 x_centroid{angstrom}  cell{atomic_unit}
       C -3.99903e-01 -1.29467e-01  1.65764e-01