6
# CELL(abcABC):  459.05226   459.05226   459.05226    90.00000    90.00000    90.00000  Step:           0  Bead:       0 x_centroid{angstrom}  cell{atomic_unit}
       C -3.39887e-01 -1.13437e-01  8.06659e-02
       O  8.43483e-01  2.62672e-01 -1.81512e-01
       H -7.35799e-02  8.16467e-01 -6.61432e-01
       H -4.30016e-01 -9.65701e-01  7.62278e-01
       L  6.13458e+01  0.00000e+00  0.00000e+00
       L  0.00000e+00  8.59064e+00  0.00000e+00
6
# CELL(abcABC):  459.05226   459.05226   459.05226    90.00000    90.00000    90.00000  Step:           1  Bead:       0 x_centroid{angstrom}  cell{atomic_unit}
       C -3.40771e-01 -1.15864e-01  8.29320e-02
       O  8.44761e-01  2.63393e-01 -1.84153e-01
       H -8.97115e-02  8.24924e-01 -6.55639e-01
       H -4.23491e-01 -9.56861e-01  7.71281e-01
       L  6.14867e+01  9.88063e-02 -3.25496e-01
       L -4.00687e-01  8.80508e+00  5.23567e-01
6
# CELL(abcABC):  459.05226   459.05226   459.05226    90.00000    90.00000    90.00000  Step:           2  Bead:       0 x_centroid{angstrom}  cell{atomic_unit}
       C -3.41271e-01 -1.18107e-01  8.54930e-02
       O  8.45331e-01  2.64012e-01 -1.87008e-01
       H -1.00363e-01  8.33605e-01 -6.49372e-01
       H -4.15832e-01 -9.48782e-01  7.79723e-01
       L  6.16692e+01  1.92711e-01 -6.27524e-01
       L -7.71914e-01  8.96620e+00  1.00682e+00
6
# CELL(abcABC):  459.05226   459.05226   459.05226    90.00000    90.00000    90.00000  Step:           3  Bead:       0 x_centroid{angstrom}  cell{atomic_unit}
       C -3.41512e-01 -1.20381e-01  8.80819e-02
       O  8.45066e-01  2.64834e-01 -1.89995e-01
       H -1.03291e-01  8.40776e-01 -6.42124e-01
       H -4.05765e-01 -9.42034e-01  7.89008e-01
       L  6.18597e+01  3.02136e-01 -9.84349e-01
       L -1.05958e+00  9.11291e+00  1.43102e+00
6
# CELL(abcABC):  459.05226   459.05226   459.05226    90.00000    90.00000    90.00000  Step:           4  Bead:       0 x_centroid{angstrom}  cell{atomic_unit}
       C -3.41161e-01 -1.22756e-01  9.04234e-02
       O  8.43907e-01  2.65914e-01 -1.92923e-01
       H -9.82736e-02  8.46036e-01 -6.33602e-01
       H -3.96519e-01 -9.36324e-01  7.98985e-01
       L  6.20631e+01  4.31358e-01 -1.29984e+00
       L -1.36537e+00  9.31479e+00  1.87136e+00
6
# CELL(abcABC):  459.05226   459.05226   459.05226    90.00000    90.00000    90.00000  Step:           5  Bead:       0 x_centroid{angstrom}  cell{atomic_unit}
       C -3.40706e-01 -1.24845e-01  9.26996e-02
       O  8.42468e-01  2.67254e-01 -1.95795e-01
       H -9.02751e-02  8.46317e-01 -6.24167e-01
       H -3.87059e-01 -9.33125e-01  8.07918e-01
       L  6.23076e+01  5.93997e-01 -1.53245e+00
       L -1.67199e+00  9.42245e+00  2.28028e+00
6
# CELL(abcABC):  459.05226   459.05226   459.05226    90.00000    90.00000    90.00000  Step:           6  Bead:       0 x_centroid{angstrom}  cell{atomic_unit}
       C -3.40470e-01 -1.26632e-01  9.52363e-02
       O  8.41401e-01  2.68713e-01 -1.98755e-01
       H -8.48717e-02  8.42108e-01 -6.14253e-01
       H -3.78294e-01 -9.30899e-01  8.14636e-01
       L  6.25267e+01  7.43364e-01 -1.70325e+00
       L -1.99159e+00  9.48606e+00  2.68641e+00
6
# CELL(abcABC):  459.05226   459.05226   459.05226    90.00000    90.00000    90.00000  Step:           7  Bead:       0 x_centroid{angstrom}  cell{atomic_unit}
       C -3.40820e-01 -1.28469e-01  9.79999e-02
       O  8.41246e-01  2.70389e-01 -2.01787e-01
       H -8.53732e-02  8.34179e-01 -6.02796e-01
       H -3.71120e-01 -9.27792e-01  8.18262e-01
       L  6.27332e+01  8.97982e-01 -1.87916e+00
       L -2.27090e+00  9.53750e+00  3.08198e+00
6
# CELL(abcABC):  459.05226   459.05226   459.05226    90.00000    90.00000    90.00000  Step:           8  Bead:       0 x_centroid{angstrom}  cell{atomic_unit}
       C -3.41326e-01 -1.30169e-01  1.00516e-01
       O  8.41638e-01  2.72113e-01 -2.04670e-01
       H -9.13272e-02  8.24168e-01 -5.90093e-01
       H -3.65298e-01 -9.24980e-01  8.21189e-01
       L  6.29192e+01  1.01821e+00 -1.99062e+00
       L -2.54710e+00  9.55945e+00  3.47361e+00
6
# CELL(abcABC):  459.05226   459.05226   459.05226    90.00000    90.00000    90.00000  Step:           9  Bead:       0 x_centroid{angstrom}  cell{atomic_unit}
       C -3.41515e-01 -1.31781e-01  1.03023e-01
       O  8.42099e-01  2.73758e-01 -2.07436e-01
       H -1.00585e-01  8.15548e-01 -5.78947e-01
       H -3.61049e-01 -9.23329e-01  8.23935e-01
       L  6.30560e+01  1.13112e+00 -2.09535e+00
       L -2.79018e+00  9.56610e+00  3.83074e+00
6
# CELL(abcABC):  459.05226   459.05226   459.05226    90.00000    90.00000    90.00000  Step:          10  Bead:       0 x_centroid{angstrom}  cell{atomic_unit}
       C -3.41331e-01 -1.33327e-01  1.05414e-01
       O  8.42360e-01  2.75406e-01 -2.10035e-01
       H -1.10299e-01  8.08630e-01 -5.70663e-01
       H -3.57610e-01 -9.24206e-01  8.28279e-01
       L  6.31717e+01  1.21462e+00 -2.19093e+00
       L -3.03397e+00  9.60795e+00  4.15254e+00
6
# CELL(abcABC):  459.05226   459.05226   459.05226    90.00000    90.00000    90.00000  Step:          11  Bead:       0 x_centroid{angstrom}  cell{atomic_unit}
       C -3.40539e-01 -1.34881e-01  1.07629e-01
       O  8.42085e-01  2.76894e-01 -2.12484e-01
       H -1.19098e-01  8.05983e-01 -5.64871e-01
       H -3.53810e-01 -9.26718e-01  8.34855e-01
       L  6.32598e+01  1.26657e+00 -2.25959e+00
       L -3.25493e+00  9.66490e+00  4.43472e+00
6
# CELL(abcABC):  459.05226   459.05226   459.05226    90.00000    90.00000    90.00000  Step:          12  Bead:       0 x_centroid{angstrom}  cell{atomic_unit}
       C -3.38934e-01 -1.36434e-01  1.09618e-01
       O  8.40884e-01  2.78151e-01 -2.14732e-01
       H -1.23842e-01  8.08541e-01 -5.62003e-01
       H -3.49077e-01 -9.30789e-01  8.43789e-01
       L  6.33788e+01  1.29653e+00 -2.23577e+00
       L -3.45718e+00  9.73384e+00  4.74573e+00
6
# CELL(abcABC):  459.05226   459.05226   459.05226    90.00000    90.00000    90.00000  Step:          13  Bead:       0 x_centroid{angstrom}  cell{atomic_unit}
       C -3.37012e-01 -1.38359e-01  1.11713e-01
       O  8.39161e-01  2.79545e-01 -2.16952e-01
       H -1.24909e-01  8.15237e-01 -5.62301e-01
       H -3.43579e-01 -9.36752e-01  8.54172e-01
       L  6.35825e+01  1.31215e+00 -2.19117e+00
       L -3.61135e+00  9.86700e+00  5.06424e+00
6
# CELL(abcABC):  459.05226   459.05226   459.05226    90.00000    90.00000    90.00000  Step:          14  Bead:       0 x_centroid{angstrom}  cell{atomic_unit}
       C -3.34947e-01 -1.40169e-01  1.14101e-01
       O  8.37209e-01  2.80685e-01 -2.19371e-01
       H -1.24915e-01  8.24387e-01 -5.64655e-01
       H -3.37281e-01 -9.42508e-01  8.66338e-01
       L  6.38244e+01  1.39353e+00 -2.17897e+00
       L -3.72214e+00  9.95357e+00  5.28627e+00
6
# CELL(abcABC):  459.05226   459.05226   459.05226    90.00000    90.00000    90.00000  Step:          15  Bead:       0 x_centroid{angstrom}  cell{atomic_unit}
       C -3.32602e-01 -1.41955e-01  1.16475e-01
       O  8.35271e-01  2.81720e-01 -2.21578e-01
       H -1.28041e-01  8.33801e-01 -5.67648e-01
       H -3.31453e-01 -9.47151e-01  8.75959e-01
       L  6.41101e+01  1.47744e+00 -2.16136e+00
       L -3.79213e+00  1.00010e+01  5.46882e+00
6
# CELL(abcABC):  459.05226   459.05226   459.05226    90.00000    90.00000    90.00000  Step:          16  Bead:       0 x_centroid{angstrom}  cell{atomic_unit}
       C -3.30611e-01 -1.43881e-01  1.19207e-01
       O  8.34034e-01  2.82985e-01 -2.23845e-01
       H -1.36266e-01  8.39804e-01 -5.69968e-01
       H -3.27473e-01 -9.50319e-01  8.81636e-01
       L  6.43866e+01  1.57049e+00 -2.11232e+00
       L -3.76649e+00  9.96789e+00  5.56994e+00
6
# CELL(abcABC):  459.05226   459.05226   459.05226    90.00000    90.00000    90.00000  Step:          17  Bead:       0 x_centroid{angstrom}  cell{atomic_unit}
       C -3.28627e-01 -1.45614e-01  1.22290e-01
       O  8.33253e-01  2.84322e-01 -2.26240e-01
       H -1.48665e-01  8.41652e-01 -5.71641e-01
       H -3.26511e-01 -9.52732e-01  8.84542e-01
       L  6.46743e+01  1.65423e+00 -2.05890e+00
       L -3.72166e+00  9.88217e+00  5.59331e+00
6
# CELL(abcABC):  459.05226   459.05226   459.05226    90.00000    90.00000    90.00000  Step:          18  Bead:       0 x_centroid{angstrom}  cell{atomic_unit}
       C -3.26614e-01 -1.47132e-01  1.25456e-01
       O  8.32661e-01  2.85589e-01 -2.28510e-01
       H -1.63924e-01  8.40374e-01 -5.72758e-01
       H -3.26088e-01 -9.53422e-01  8.83964e-01
       L  6.50227e+01  1.69623e+00 -1.98788e+00
       L -3.59922e+00  9.73034e+00  5.53155e+00
6
# CELL(abcABC):  459.05226   459.05226   459.05226    90.00000    90.00000    90.00000  Step:          19  Bead:       0 x_centroid{angstrom}  cell{atomic_unit}
       C -3.24394e-01 -1.48732e-01  1.28806e-01
       O  8.31712e-01  2.87124e-01 -2.30889e-01
       H -1.77770e-01  8.36901e-01 -5.73264e-01
       H -3.23910e-01 -9.55145e-01  8.82328e-01
       L  6.53780e+01  1.68656e+00 -1.89308e+00
       L -3.45469e+00  9.56080e+00  5.38305e+00
6
# CELL(abcABC):  459.05226   459.05226   459.05226    90.00000    90.00000    90.00000  Step:          20  Bead:       0 x_centroid{angstrom}  cell{atomic_unit}
       C -3.21809e-01 -1.50162e-01  1.31656e-01
       O  8.30124e-01  2.88704e-01 -2.32933e-01
       H -1.85876e-01  8.30467e-01 -5.73302e-01
       H -3.21717e-01 -9.56640e-01  8.80845e-01
       L  6.57621e+01  1.67420e+00 -1.73642e+00
       L -3.24795e+00  9.37218e+00  5.24860e+00
6
# CELL(abcABC):  459.05226   459.05226   459.05226    90.00000    90.00000    90.00000  Step:          21  Bead:       0 x_centroid{angstrom}  cell{atomic_unit}
       C -3.18886e-01 -1.51559e-01  1.34240e-01
       O  8.27793e-01  2.90320e-01 -2.34754e-01
       H -1.87168e-01  8.23373e-01 -5.73510e-01
       H -3.18649e-01 -9.58446e-01  8.79211e-01
       L  6.62480e+01  1.67889e+00 -1.58888e+00
       L -3.02696e+00  9.16200e+00  5.04518e+00
6
# CELL(abcABC):  459.05226   459.05226   459.05226    90.00000    90.00000    90.00000  Step:          22  Bead:       0 x_centroid{angstrom}  cell{atomic_unit}
       C -3.15435e-01 -1.52970e-01  1.36850e-01
       O  8.24704e-01  2.91762e-01 -2.36545e-01
       H -1.83965e-01  8.17938e-01 -5.73868e-01
       H -3.14321e-01 -9.58960e-01  8.76956e-01
       L  6.67392e+01  1.67151e+00 -1.46710e+00
       L -2.79932e+00  8.93390e+00  4.79094e+00
6
# CELL(abcABC):  459.05226   459.05226   459.05226    90.00000    90.00000    90.00000  Step:          23  Bead:       0 x_centroid{angstrom}  cell{atomic_unit}
       C -3.11609e-01 -1.54248e-01  1.39382e-01
       O  8.21282e-01  2.93121e-01 -2.38206e-01
       H -1.80241e-01  8.12854e-01 -5.74249e-01
       H -3.09718e-01 -9.60059e-01  8.73652e-01
       L  6.72299e+01  1.59368e+00 -1.36550e+00
       L -2.56660e+00  8.71761e+00  4.47414e+00
6
# CELL(abcABC):  459.05226   459.05226   459.05226    90.00000    90.00000    90.00000  Step:          24  Bead:       0 x_centroid{angstrom}  cell{atomic_unit}
       C -3.07521e-01 -1.55384e-01  1.41917e-01
       O  8.17869e-01  2.94246e-01 -2.39932e-01
       H -1.79321e-01  8.09354e-01 -5.74172e-01
       H -3.05551e-01 -9.60677e-01  8.70842e-01
       L  6.76838e+01  1.49151e+00 -1.21925e+00
       L -2.32404e+00  8.45835e+00  4.18300e+00
6
# CELL(abcABC):  459.05226   459.05226   459.05226    90.00000    90.00000    90.00000  Step:          25  Bead:       0 x_centroid{angstrom}  cell{atomic_unit}
       C -3.03851e-01 -1.56131e-01  1.44210e-01
       O  8.15151e-01  2.95052e-01 -2.41396e-01
       H -1.83809e-01  8.07145e-01 -5.75312e-01
       H -3.01979e-01 -9.62207e-01  8.68011e-01
       L  6.80524e+01  1.45175e+00 -1.04316e+00
       L -2.10103e+00  8.19127e+00  3.81672e+00
6
# CELL(abcABC):  459.05226   459.05226   459.05226    90.00000    90.00000    90.00000  Step:          26  Bead:       0 x_centroid{angstrom}  cell{atomic_unit}
       C -3.00367e-01 -1.56408e-01  1.46539e-01
       O  8.13099e-01  2.95347e-01 -2.42845e-01
       H -1.96690e-01  8.07136e-01 -5.76871e-01
       H -2.98388e-01 -9.63416e-01  8.64906e-01
       L  6.84374e+01  1.41476e+00 -8.50194e-01
       L -1.83703e+00  7.93191e+00  3.44210e+00
6
# CELL(abcABC):  459.05226   459.05226   459.05226    90.00000    90.00000    90.00000  Step:          27  Bead:       0 x_centroid{angstrom}  cell{atomic_unit}
       C -2.97169e-01 -1.56657e-01  1.48819e-01
       O  8.11628e-01  2.95626e-01 -2.44211e-01
       H -2.15592e-01  8.08110e-01 -5.79259e-01
       H -2.94587e-01 -9.65634e-01  8.61944e-01
       L  6.88183e+01  1.32825e+00 -6.62283e-01
       L -1.57936e+00  7.65379e+00  3.01626e+00
6
# CELL(abcABC):  459.05226   459.05226   459.05226    90.00000    90.00000    90.00000  Step:          28  Bead:       0 x_centroid{angstrom}  cell{atomic_unit}
       C -2.94180e-01 -1.56678e-01  1.50868e-01
       O  8.10227e-01  2.95521e-01 -2.45576e-01
       H -2.34449e-01  8.13845e-01 -5.82895e-01
       H -2.89491e-01 -9.69323e-01  8.62967e-01
       L  6.92358e+01  1.27069e+00 -4.76823e-01
       L -1.32540e+00  7.46775e+00  2.56417e+00
6
# CELL(abcABC):  459.05226   459.05226   459.05226    90.00000    90.00000    90.00000  Step:          29  Bead:       0 x_centroid{angstrom}  cell{atomic_unit}
       C -2.91123e-01 -1.56671e-01  1.52591e-01
       O  8.08514e-01  2.95393e-01 -2.46748e-01
       H -2.50388e-01  8.22220e-01 -5.87927e-01
       H -2.83145e-01 -9.75580e-01  8.66268e-01
       L  6.96495e+01  1.11100e+00 -2.62450e-01
       L -1.07948e+00  7.31532e+00  2.01520e+00
6
# CELL(abcABC):  459.05226   459.05226   459.05226    90.00000    90.00000    90.00000  Step:          30  Bead:       0 x_centroid{angstrom}  cell{atomic_unit}
       C -2.87906e-01 -1.56745e-01  1.53802e-01
       O  8.06170e-01  2.95182e-01 -2.47816e-01
       H -2.61197e-01  8.32747e-01 -5.92042e-01
       H -2.73861e-01 -9.81753e-01  8.73109e-01
       L  7.01274e+01  9.41424e-01 -3.39234e-02
       L -8.31085e-01  7.24632e+00  1.41221e+00
6
# CELL(abcABC):  459.05226   459.05226   459.05226    90.00000    90.00000    90.00000  Step:          31  Bead:       0 x_centroid{angstrom}  cell{atomic_unit}
       C -2.84664e-01 -1.56221e-01  1.54641e-01
       O  8.03425e-01  2.94666e-01 -2.48680e-01
       H -2.68093e-01  8.42072e-01 -5.94986e-01
       H -2.62453e-01 -9.89052e-01  8.79995e-01
       L  7.06774e+01  7.88388e-01  1.38321e-01
       L -5.64774e-01  7.25838e+00  8.03005e-01
6
# CELL(abcABC):  459.05226   459.05226   459.05226    90.00000    90.00000    90.00000  Step:          32  Bead:       0 x_centroid{angstrom}  cell{atomic_unit}
       C -2.81480e-01 -1.55376e-01  1.55088e-01
       O  8.00602e-01  2.94141e-01 -2.49390e-01
       H -2.73437e-01  8.48126e-01 -5.94953e-01
       H -2.50696e-01 -9.96742e-01  8.86187e-01
       L  7.12545e+01  5.89108e-01  2.55513e-01
       L -2.93567e-01  7.28257e+00  1.68833e-01
6
# CELL(abcABC):  459.05226   459.05226   459.05226    90.00000    90.00000    90.00000  Step:          33  Bead:       0 x_centroid{angstrom}  cell{atomic_unit}
       C -2.78426e-01 -1.54439e-01  1.55651e-01
       O  7.98061e-01  2.93775e-01 -2.50349e-01
       H -2.80789e-01  8.48874e-01 -5.91028e-01
       H -2.39870e-01 -1.00274e+00  8.91048e-01
       L  7.18458e+01  3.54328e-01  4.03319e-01
       L -4.75003e-02  7.32251e+00 -4.46341e-01
6
# CELL(abcABC):  459.05226   459.05226   459.05226    90.00000    90.00000    90.00000  Step:          34  Bead:       0 x_centroid{angstrom}  cell{atomic_unit}
       C -2.75550e-01 -1.53427e-01  1.55974e-01
       O  7.95939e-01  2.93617e-01 -2.51137e-01
       H -2.90806e-01  8.43038e-01 -5.83921e-01
       H -2.30917e-01 -1.00636e+00  8.92852e-01
       L  7.24846e+01  7.38975e-02  5.58501e-01
       L  1.94739e-01  7.41250e+00 -1.08238e+00
6
# CELL(abcABC):  459.05226   459.05226   459.05226    90.00000    90.00000    90.00000  Step:          35  Bead:       0 x_centroid{angstrom}  cell{atomic_unit}
       C -2.72935e-01 -1.52421e-01  1.56356e-01
       O  7.94118e-01  2.93611e-01 -2.52030e-01
       H -3.03713e-01  8.31715e-01 -5.75040e-01
       H -2.20751e-01 -1.00681e+00  8.93832e-01
       L  7.31633e+01 -2.05090e-01  6.86669e-01
       L  4.01929e-01  7.49037e+00 -1.64603e+00
6
# CELL(abcABC):  459.05226   459.05226   459.05226    90.00000    90.00000    90.00000  Step:          36  Bead:       0 x_centroid{angstrom}  cell{atomic_unit}
       C -2.70482e-01 -1.51235e-01  1.56851e-01
       O  7.92637e-01  2.93550e-01 -2.53073e-01
       H -3.18882e-01  8.18045e-01 -5.63767e-01
       H -2.11783e-01 -1.00619e+00  8.93461e-01
       L  7.38969e+01 -4.93512e-01  8.08328e-01
       L  5.58818e-01  7.56587e+00 -2.23130e+00
6
# CELL(abcABC):  459.05226   459.05226   459.05226    90.00000    90.00000    90.00000  Step:          37  Bead:       0 x_centroid{angstrom}  cell{atomic_unit}
       C -2.68310e-01 -1.49806e-01  1.57366e-01
       O  7.91242e-01  2.93325e-01 -2.54222e-01
       H -3.31256e-01  8.03946e-01 -5.50671e-01
       H -2.03637e-01 -1.00545e+00  8.92757e-01
       L  7.46391e+01 -7.69380e-01  8.86615e-01
       L  6.97033e-01  7.65446e+00 -2.83589e+00
6
# CELL(abcABC):  459.05226   459.05226   459.05226    90.00000    90.00000    90.00000  Step:          38  Bead:       0 x_centroid{angstrom}  cell{atomic_unit}
       C -2.65848e-01 -1.48509e-01  1.57469e-01
       O  7.89305e-01  2.92938e-01 -2.55092e-01
       H -3.39495e-01  7.92857e-01 -5.38591e-01
       H -1.94500e-01 -1.00360e+00  8.93539e-01
       L  7.54187e+01 -1.03753e+00  9.35084e-01
       L  8.69976e-01  7.80495e+00 -3.39633e+00
6
# CELL(abcABC):  459.05226   459.05226   459.05226    90.00000    90.00000    90.00000  Step:          39  Bead:       0 x_centroid{angstrom}  cell{atomic_unit}
       C -2.63216e-01 -1.47595e-01  1.57211e-01
       O  7.86967e-01  2.92573e-01 -2.55762e-01
       H -3.44923e-01  7.85766e-01 -5.26202e-01
       H -1.83879e-01 -1.00162e+00  8.95129e-01
       L  7.62995e+01 -1.22772e+00  9.71520e-01
       L  1.01024e+00  8.00735e+00 -3.94907e+00
6
# CELL(abcABC):  459.05226   459.05226   459.05226    90.00000    90.00000    90.00000  Step:          40  Bead:       0 x_centroid{angstrom}  cell{atomic_unit}
       C -2.60307e-01 -1.46845e-01  1.56600e-01
       O  7.84226e-01  2.91930e-01 -2.56190e-01
       H -3.48128e-01  7.84574e-01 -5.15156e-01
       H -1.72385e-01 -9.99215e-01  8.98437e-01
       L  7.71982e+01 -1.39781e+00  1.02864e+00
       L  1.11794e+00  8.28486e+00 -4.49931e+00
6
# CELL(abcABC):  459.05226   459.05226   459.05226    90.00000    90.00000    90.00000  Step:          41  Bead:       0 x_centroid{angstrom}  cell{atomic_unit}
       C -2.57415e-01 -1.46105e-01  1.55759e-01
       O  7.81461e-01  2.91038e-01 -2.56568e-01
       H -3.51670e-01  7.87553e-01 -5.04775e-01
       H -1.59923e-01 -9.96959e-01  9.04320e-01
       L  7.81303e+01 -1.56529e+00  1.10303e+00
       L  1.13525e+00  8.63894e+00 -5.02287e+00
6
# CELL(abcABC):  459.05226   459.05226   459.05226    90.00000    90.00000    90.00000  Step:          42  Bead:       0 x_centroid{angstrom}  cell{atomic_unit}
       C -2.54397e-01 -1.45427e-01  1.54910e-01
       O  7.78887e-01  2.89922e-01 -2.56898e-01
       H -3.58644e-01  7.94192e-01 -4.95118e-01
       H -1.48624e-01 -9.94073e-01  9.10210e-01
       L  7.91028e+01 -1.77326e+00  1.23154e+00
       L  1.20147e+00  9.05240e+00 -5.49897e+00
6
# CELL(abcABC):  459.05226   459.05226   459.05226    90.00000    90.00000    90.00000  Step:          43  Bead:       0 x_centroid{angstrom}  cell{atomic_unit}
       C -2.51796e-01 -1.44481e-01  1.54262e-01
       O  7.77103e-01  2.88414e-01 -2.57390e-01
       H -3.71957e-01  8.03344e-01 -4.85334e-01
       H -1.38539e-01 -9.90709e-01  9.16128e-01
       L  8.00585e+01 -1.91504e+00  1.34831e+00
       L  1.26432e+00  9.46098e+00 -5.92688e+00
6
# CELL(abcABC):  459.05226   459.05226   459.05226    90.00000    90.00000    90.00000  Step:          44  Bead:       0 x_centroid{angstrom}  cell{atomic_unit}
       C -2.49571e-01 -1.43598e-01  1.53878e-01
       O  7.76239e-01  2.86778e-01 -2.58087e-01
       H -3.93629e-01  8.14330e-01 -4.74707e-01
       H -1.30228e-01 -9.86458e-01  9.21299e-01
       L  8.10027e+01 -1.99748e+00  1.44852e+00
       L  1.35618e+00  9.92537e+00 -6.31660e+00
6
# CELL(abcABC):  459.05226   459.05226   459.05226    90.00000    90.00000    90.00000  Step:          45  Bead:       0 x_centroid{angstrom}  cell{atomic_unit}
       C -2.47335e-01 -1.42680e-01  1.53120e-01
       O  7.75839e-01  2.85013e-01 -2.58666e-01
       H -4.21529e-01  8.26351e-01 -4.62621e-01
       H -1.23229e-01 -9.81629e-01  9.27568e-01
       L  8.19638e+01 -2.05445e+00  1.54953e+00
       L  1.50219e+00  1.04130e+01 -6.64902e+00
6
# CELL(abcABC):  459.05226   459.05226   459.05226    90.00000    90.00000    90.00000  Step:          46  Bead:       0 x_centroid{angstrom}  cell{atomic_unit}
       C -2.45002e-01 -1.41551e-01  1.52517e-01
       O  7.75661e-01  2.82968e-01 -2.59506e-01
       H -4.52963e-01  8.39419e-01 -4.48566e-01
       H -1.17345e-01 -9.75945e-01  9.34155e-01
       L  8.29230e+01 -2.14295e+00  1.61995e+00
       L  1.61289e+00  1.09719e+01 -6.94418e+00
6
# CELL(abcABC):  459.05226   459.05226   459.05226    90.00000    90.00000    90.00000  Step:          47  Bead:       0 x_centroid{angstrom}  cell{atomic_unit}
       C -2.42409e-01 -1.40377e-01  1.51711e-01
       O  7.75391e-01  2.80750e-01 -2.60418e-01
       H -4.86394e-01  8.52396e-01 -4.31840e-01
       H -1.11131e-01 -9.67989e-01  9.41600e-01
       L  8.39560e+01 -2.18769e+00  1.65834e+00
       L  1.70334e+00  1.15475e+01 -7.17191e+00
6
# CELL(abcABC):  459.05226   459.05226   459.05226    90.00000    90.00000    90.00000  Step:          48  Bead:       0 x_centroid{angstrom}  cell{atomic_unit}
       C -2.39573e-01 -1.38815e-01  1.50561e-01
       O  7.74953e-01  2.78149e-01 -2.61384e-01
       H -5.20961e-01  8.66646e-01 -4.12667e-01
       H -1.04102e-01 -9.59954e-01  9.51511e-01
       L  8.51331e+01 -2.20308e+00  1.74343e+00
       L  1.79894e+00  1.22449e+01 -7.33795e+00
6
# CELL(abcABC):  459.05226   459.05226   459.05226    90.00000    90.00000    90.00000  Step:          49  Bead:       0 x_centroid{angstrom}  cell{atomic_unit}
       C -2.36337e-01 -1.36982e-01  1.48996e-01
       O  7.74300e-01  2.75221e-01 -2.62343e-01
       H -5.57000e-01  8.81597e-01 -3.90549e-01
       H -9.69779e-02 -9.50690e-01  9.63323e-01
       L  8.63952e+01 -2.21428e+00  1.76181e+00
       L  1.84386e+00  1.30458e+01 -7.46380e+00
6
# CELL(abcABC):  459.05226   459.05226   459.05226    90.00000    90.00000    90.00000  Step:          50  Bead:       0 x_centroid{angstrom}  cell{atomic_unit}
       C -2.32498e-01 -1.34697e-01  1.46665e-01
       O  7.73461e-01  2.71968e-01 -2.63054e-01
       H -5.95939e-01  8.95680e-01 -3.63719e-01
       H -9.12574e-02 -9.40838e-01  9.75576e-01
       L  8.78253e+01 -2.21913e+00  1.75153e+00
       L  1.85848e+00  1.39122e+01 -7.50032e+00
6
# CELL(abcABC):  459.05226   459.05226   459.05226    90.00000    90.00000    90.00000  Step:          51  Bead:       0 x_centroid{angstrom}  cell{atomic_unit}
       C -2.28268e-01 -1.31609e-01  1.43971e-01
       O  7.72530e-01  2.68123e-01 -2.63793e-01
       H -6.37403e-01  9.08384e-01 -3.32900e-01
       H -8.62852e-02 -9.29845e-01  9.88598e-01
       L  8.93859e+01 -2.20546e+00  1.71083e+00
       L  1.90832e+00  1.48947e+01 -7.48246e+00
6
# CELL(abcABC):  459.05226   459.05226   459.05226    90.00000    90.00000    90.00000  Step:          52  Bead:       0 x_centroid{angstrom}  cell{atomic_unit}
       C -2.23719e-01 -1.27747e-01  1.41290e-01
       O  7.71818e-01  2.63748e-01 -2.64766e-01
       H -6.84004e-01  9.18339e-01 -2.98499e-01
       H -8.34848e-02 -9.16980e-01  1.00157e+00
       L  9.09854e+01 -2.16838e+00  1.68260e+00
       L  1.96057e+00  1.59593e+01 -7.39262e+00
6
# CELL(abcABC):  459.05226   459.05226   459.05226    90.00000    90.00000    90.00000  Step:          53  Bead:       0 x_centroid{angstrom}  cell{atomic_unit}
       C -2.19007e-01 -1.23054e-01  1.38388e-01
       O  7.71340e-01  2.59127e-01 -2.65823e-01
       H -7.33126e-01  9.23014e-01 -2.59841e-01
       H -8.39030e-02 -9.04871e-01  1.01421e+00
       L  9.26746e+01 -2.14512e+00  1.67399e+00
       L  2.06725e+00  1.71419e+01 -7.27129e+00
6
# CELL(abcABC):  459.05226   459.05226   459.05226    90.00000    90.00000    90.00000  Step:          54  Bead:       0 x_centroid{angstrom}  cell{atomic_unit}
       C -2.14341e-01 -1.17543e-01  1.35677e-01
       O  7.71245e-01  2.54208e-01 -2.67215e-01
       H -7.86473e-01  9.21029e-01 -2.17271e-01
       H -8.56318e-02 -8.91195e-01  1.02591e+00
       L  9.43958e+01 -2.05466e+00  1.67780e+00
       L  2.14596e+00  1.83689e+01 -7.03807e+00
6
# CELL(abcABC):  459.05226   459.05226   459.05226    90.00000    90.00000    90.00000  Step:          55  Bead:       0 x_centroid{angstrom}  cell{atomic_unit}
       C -2.10555e-01 -1.11148e-01  1.32970e-01
       O  7.72106e-01  2.49019e-01 -2.69009e-01
       H -8.41023e-01  9.11119e-01 -1.70254e-01
       H -9.08764e-02 -8.75947e-01  1.03945e+00
       L  9.61459e+01 -1.87994e+00  1.66288e+00
       L  2.26809e+00  1.96967e+01 -6.72061e+00
6
# CELL(abcABC):  459.05226   459.05226   459.05226    90.00000    90.00000    90.00000  Step:          56  Bead:       0 x_centroid{angstrom}  cell{atomic_unit}
       C -2.08052e-01 -1.03691e-01  1.30569e-01
       O  7.74125e-01  2.43521e-01 -2.71303e-01
       H -8.96216e-01  8.90586e-01 -1.17800e-01
       H -9.85692e-02 -8.57937e-01  1.05189e+00
       L  9.78846e+01 -1.63972e+00  1.58971e+00
       L  2.37401e+00  2.11830e+01 -6.38474e+00
6
# CELL(abcABC):  459.05226   459.05226   459.05226    90.00000    90.00000    90.00000  Step:          57  Bead:       0 x_centroid{angstrom}  cell{atomic_unit}
       C -2.07014e-01 -9.51073e-02  1.28853e-01
       O  7.77584e-01  2.37682e-01 -2.74204e-01
       H -9.52576e-01  8.60350e-01 -6.18544e-02
       H -1.10452e-01 -8.38251e-01  1.06231e+00
       L  9.96181e+01 -1.48176e+00  1.46056e+00
       L  2.42162e+00  2.27685e+01 -6.01948e+00
6
# CELL(abcABC):  459.05226   459.05226   459.05226    90.00000    90.00000    90.00000  Step:          58  Bead:       0 x_centroid{angstrom}  cell{atomic_unit}
       C -2.07453e-01 -8.58481e-02  1.27773e-01
       O  7.82216e-01  2.31729e-01 -2.77540e-01
       H -1.00833e+00  8.21756e-01 -4.74232e-03
       H -1.23967e-01 -8.16480e-01  1.07088e+00
       L  1.01381e+02 -1.33197e+00  1.31354e+00
       L  2.45391e+00  2.44277e+01 -5.63547e+00
6
# CELL(abcABC):  459.05226   459.05226   459.05226    90.00000    90.00000    90.00000  Step:          59  Bead:       0 x_centroid{angstrom}  cell{atomic_unit}
       C -2.09112e-01 -7.57356e-02  1.27864e-01
       O  7.87873e-01  2.25583e-01 -2.81420e-01
       H -1.06290e+00  7.74592e-01  5.32650e-02
       H -1.40369e-01 -7.93293e-01  1.07326e+00
       L  1.03159e+02 -1.17344e+00  1.14309e+00
       L  2.42001e+00  2.61667e+01 -5.21165e+00
6
# CELL(abcABC):  459.05226   459.05226   459.05226    90.00000    90.00000    90.00000  Step:          60  Bead:       0 x_centroid{angstrom}  cell{atomic_unit}
       C -2.11750e-01 -6.53255e-02  1.28786e-01
       O  7.94403e-01  2.19472e-01 -2.85593e-01
       H -1.11610e+00  7.22204e-01  1.10450e-01
       H -1.60361e-01 -7.68967e-01  1.07117e+00
       L  1.04978e+02 -1.00572e+00  9.82507e-01
       L  2.38825e+00  2.78839e+01 -4.78065e+00
6
# CELL(abcABC):  459.05226   459.05226   459.05226    90.00000    90.00000    90.00000  Step:          61  Bead:       0 x_centroid{angstrom}  cell{atomic_unit}
       C -2.14389e-01 -5.50689e-02  1.30965e-01
       O  8.01211e-01  2.13578e-01 -2.90381e-01
       H -1.16976e+00  6.68609e-01  1.67090e-01
       H -1.84339e-01 -7.45033e-01  1.06441e+00
       L  1.06864e+02 -8.31409e-01  7.87036e-01
       L  2.35715e+00  2.95382e+01 -4.31139e+00
6
# CELL(abcABC):  459.05226   459.05226   459.05226    90.00000    90.00000    90.00000  Step:          62  Bead:       0 x_centroid{angstrom}  cell{atomic_unit}
       C -2.16701e-01 -4.50489e-02  1.34195e-01
       O  8.07884e-01  2.07706e-01 -2.95453e-01
       H -1.22240e+00  6.15486e-01  2.22283e-01
       H -2.11146e-01 -7.19063e-01  1.05108e+00
       L  1.08821e+02 -6.48668e-01  5.80183e-01
       L  2.37398e+00  3.11374e+01 -3.80229e+00
6
# CELL(abcABC):  459.05226   459.05226   459.05226    90.00000    90.00000    90.00000  Step:          63  Bead:       0 x_centroid{angstrom}  cell{atomic_unit}
       C -2.18159e-01 -3.56645e-02  1.38826e-01
       O  8.14026e-01  2.02124e-01 -3.00857e-01
       H -1.27428e+00  5.64299e-01  2.72207e-01
       H -2.40477e-01 -6.92074e-01  1.03152e+00
       L  1.10847e+02 -4.29579e-01  4.29556e-01
       L  2.35533e+00  3.27068e+01 -3.22909e+00
6
# CELL(abcABC):  459.05226   459.05226   459.05226    90.00000    90.00000    90.00000  Step:          64  Bead:       0 x_centroid{angstrom}  cell{atomic_unit}
       C -2.18349e-01 -2.67149e-02  1.44605e-01
       O  8.19250e-01  1.96652e-01 -3.06493e-01
       H -1.32559e+00  5.16503e-01  3.15977e-01
       H -2.70919e-01 -6.65045e-01  1.00813e+00
       L  1.12916e+02 -1.78898e-01  2.75862e-01
       L  2.31759e+00  3.42675e+01 -2.65303e+00
6
# CELL(abcABC):  459.05226   459.05226   459.05226    90.00000    90.00000    90.00000  Step:          65  Bead:       0 x_centroid{angstrom}  cell{atomic_unit}
       C -2.17770e-01 -1.84277e-02  1.51444e-01
       O  8.23839e-01  1.91653e-01 -3.12377e-01
       H -1.37647e+00  4.71932e-01  3.54121e-01
       H -3.00923e-01 -6.40879e-01  9.81656e-01
       L  1.15030e+02  7.50069e-02  1.32624e-01
       L  2.26547e+00  3.58398e+01 -2.08759e+00
6
# CELL(abcABC):  459.05226   459.05226   459.05226    90.00000    90.00000    90.00000  Step:          66  Bead:       0 x_centroid{angstrom}  cell{atomic_unit}
       C -2.16578e-01 -1.06374e-02  1.58836e-01