6
# CELL(abcABC):  459.05226   459.05226   459.05226    90.00000    90.00000    90.00000  Step:           0  Bead:       0 x_centroid{angstrom}  cell{atomic_unit}
       C -3.39887e-01 -1.13437e-01  8.06659e-02
       O  8.43483e-01  2.62672e-01 -1.81512e-01
       H -7.35799e-02  8.16467e-01 -6.61432e-01
       H -4.30016e-01 -9.65701e-01  7.62278e-01
       L  6.13458e+01  0.00000e+00  0.00000e+00
       L  0.00000e+00  8.59064e+00  0.00000e+00
6
# CELL(abcABC):  459.05226   459.05226   459.05226    90.00000    90.00000    90.00000  Step:           1  Bead:       0 x_centroid{angstrom}  cell{atomic_unit}
       C -3.41416e-01 -1.13767e-01  8.17253e-02
       O  8.44257e-01  2.63755e-01 -1.81258e-01
       H -7.48804e-02  7.96854e-01 -6.70327e-01
       H -4.23128e-01 -9.59157e-01  7.54272e-01
       L  6.17441e+01  8.29531e-02  3.38921e-01
       L  2.43041e-01  8.15472e+00  1.05252e-01
6
# CELL(abcABC):  459.05226   459.05226   459.05226    90.00000    90.00000    90.00000  Step:           2  Bead:       0 x_centroid{angstrom}  cell{atomic_unit}
       C -3.42946e-01 -1.14517e-01  8.27737e-02
       O  8.44883e-01  2.64922e-01 -1.81093e-01
       H -7.36812e-02  7.81260e-01 -6.80023e-01
       H -4.16383e-01 -9.53020e-01  7.48617e-01
       L  6.21085e+01  1.92103e-01  6.94521e-01
       L  5.27148e-01  7.77913e+00  1.68533e-01
6
# CELL(abcABC):  459.05226   459.05226   459.05226    90.00000    90.00000    90.00000  Step:           3  Bead:       0 x_centroid{angstrom}  cell{atomic_unit}
       C -3.44061e-01 -1.14928e-01  8.37069e-02
       O  8.45094e-01  2.65667e-01 -1.80902e-01
       H -7.12487e-02  7.70864e-01 -6.91740e-01
       H -4.09189e-01 -9.49436e-01  7.45945e-01
       L  6.24351e+01  3.25805e-01  1.06214e+00
       L  7.92938e-01  7.44777e+00  2.61288e-01
6
# CELL(abcABC):  459.05226   459.05226   459.05226    90.00000    90.00000    90.00000  Step:           4  Bead:       0 x_centroid{angstrom}  cell{atomic_unit}
       C -3.45066e-01 -1.15346e-01  8.43805e-02
       O  8.44993e-01  2.66124e-01 -1.80590e-01
       H -6.52959e-02  7.66254e-01 -7.05216e-01
       H -4.01875e-01 -9.47030e-01  7.46194e-01
       L  6.27560e+01  4.68893e-01  1.37876e+00
       L  1.02852e+00  7.16735e+00  3.84304e-01
6
# CELL(abcABC):  459.05226   459.05226   459.05226    90.00000    90.00000    90.00000  Step:           5  Bead:       0 x_centroid{angstrom}  cell{atomic_unit}
       C -3.45690e-01 -1.15524e-01  8.49014e-02
       O  8.44679e-01  2.66179e-01 -1.80424e-01
       H -6.07752e-02  7.67800e-01 -7.19491e-01
       H -3.94274e-01 -9.47310e-01  7.51345e-01
       L  6.30834e+01  6.25311e-01  1.75005e+00
       L  1.25840e+00  6.98923e+00  5.44711e-01
6
# CELL(abcABC):  459.05226   459.05226   459.05226    90.00000    90.00000    90.00000  Step:           6  Bead:       0 x_centroid{angstrom}  cell{atomic_unit}
       C -3.45939e-01 -1.15445e-01  8.51056e-02
       O  8.44338e-01  2.65894e-01 -1.80275e-01
       H -5.94608e-02  7.74536e-01 -7.33530e-01
       H -3.87498e-01 -9.50501e-01  7.60325e-01
       L  6.33641e+01  7.95120e-01  2.10134e+00
       L  1.49899e+00  6.89862e+00  6.54275e-01
6
# CELL(abcABC):  459.05226   459.05226   459.05226    90.00000    90.00000    90.00000  Step:           7  Bead:       0 x_centroid{angstrom}  cell{atomic_unit}
       C -3.46095e-01 -1.15222e-01  8.49530e-02
       O  8.44370e-01  2.65419e-01 -1.79990e-01
       H -6.31652e-02  7.83008e-01 -7.47329e-01
       H -3.82643e-01 -9.54151e-01  7.71206e-01
       L  6.35226e+01  9.84320e-01  2.41149e+00
       L  1.71835e+00  6.81117e+00  7.49853e-01
6
# CELL(abcABC):  459.05226   459.05226   459.05226    90.00000    90.00000    90.00000  Step:           8  Bead:       0 x_centroid{angstrom}  cell{atomic_unit}
       C -3.46319e-01 -1.14927e-01  8.48476e-02
       O  8.44993e-01  2.64894e-01 -1.79783e-01
       H -7.34762e-02  7.90957e-01 -7.60233e-01
       H -3.79685e-01 -9.57356e-01  7.81893e-01
       L  6.36102e+01  1.20123e+00  2.68946e+00
       L  1.86638e+00  6.74012e+00  8.09125e-01
6
# CELL(abcABC):  459.05226   459.05226   459.05226    90.00000    90.00000    90.00000  Step:           9  Bead:       0 x_centroid{angstrom}  cell{atomic_unit}
       C -3.46516e-01 -1.14534e-01  8.44539e-02
       O  8.45920e-01  2.64470e-01 -1.79335e-01
       H -8.80168e-02  7.95422e-01 -7.71604e-01
       H -3.77642e-01 -9.59859e-01  7.90634e-01
       L  6.36720e+01  1.35226e+00  3.03738e+00
       L  2.01356e+00  6.73030e+00  8.45727e-01
6
# CELL(abcABC):  459.05226   459.05226   459.05226    90.00000    90.00000    90.00000  Step:          10  Bead:       0 x_centroid{angstrom}  cell{atomic_unit}
       C -3.46759e-01 -1.14123e-01  8.36739e-02
       O  8.46837e-01  2.64291e-01 -1.78789e-01
       H -1.01198e-01  7.95370e-01 -7.79101e-01
       H -3.76276e-01 -9.61956e-01  7.98602e-01
       L  6.38154e+01  1.51083e+00  3.32559e+00
       L  2.17519e+00  6.74881e+00  8.50593e-01
6
# CELL(abcABC):  459.05226   459.05226   459.05226    90.00000    90.00000    90.00000  Step:          11  Bead:       0 x_centroid{angstrom}  cell{atomic_unit}
       C -3.46541e-01 -1.13294e-01  8.28697e-02
       O  8.47101e-01  2.64059e-01 -1.78353e-01
       H -1.09111e-01  7.91211e-01 -7.83832e-01
       H -3.75363e-01 -9.64078e-01  8.05831e-01
       L  6.40623e+01  1.64482e+00  3.58826e+00
       L  2.32102e+00  6.76355e+00  8.78889e-01
6
# CELL(abcABC):  459.05226   459.05226   459.05226    90.00000    90.00000    90.00000  Step:          12  Bead:       0 x_centroid{angstrom}  cell{atomic_unit}
       C -3.45599e-01 -1.12266e-01  8.17931e-02
       O  8.46380e-01  2.63852e-01 -1.77895e-01
       H -1.09213e-01  7.84305e-01 -7.85256e-01
       H -3.75312e-01 -9.66233e-01  8.12648e-01
       L  6.44040e+01  1.85772e+00  3.83627e+00
       L  2.46416e+00  6.75519e+00  9.38056e-01
6
# CELL(abcABC):  459.05226   459.05226   459.05226    90.00000    90.00000    90.00000  Step:          13  Bead:       0 x_centroid{angstrom}  cell{atomic_unit}
       C -3.44582e-01 -1.11203e-01  8.07425e-02
       O  8.45007e-01  2.63831e-01 -1.77538e-01
       H -1.00535e-01  7.73124e-01 -7.84095e-01
       H -3.74552e-01 -9.67481e-01  8.18210e-01
       L  6.47793e+01  2.04612e+00  4.07362e+00
       L  2.53156e+00  6.71678e+00  9.29377e-01
6
# CELL(abcABC):  459.05226   459.05226   459.05226    90.00000    90.00000    90.00000  Step:          14  Bead:       0 x_centroid{angstrom}  cell{atomic_unit}
       C -3.42950e-01 -1.10341e-01  7.95717e-02
       O  8.43215e-01  2.63900e-01 -1.77189e-01
       H -9.14176e-02  7.60691e-01 -7.79838e-01
       H -3.74864e-01 -9.66494e-01  8.22266e-01
       L  6.50835e+01  2.22240e+00  4.28097e+00
       L  2.58975e+00  6.68202e+00  9.22227e-01
6
# CELL(abcABC):  459.05226   459.05226   459.05226    90.00000    90.00000    90.00000  Step:          15  Bead:       0 x_centroid{angstrom}  cell{atomic_unit}
       C -3.41365e-01 -1.09622e-01  7.84019e-02
       O  8.41648e-01  2.64009e-01 -1.76882e-01
       H -8.41053e-02  7.47241e-01 -7.72880e-01
       H -3.76322e-01 -9.63399e-01  8.24337e-01
       L  6.53033e+01  2.35403e+00  4.39511e+00
       L  2.60094e+00  6.68006e+00  8.67654e-01
6
# CELL(abcABC):  459.05226   459.05226   459.05226    90.00000    90.00000    90.00000  Step:          16  Bead:       0 x_centroid{angstrom}  cell{atomic_unit}
       C -3.39750e-01 -1.08870e-01  7.72421e-02
       O  8.40609e-01  2.64081e-01 -1.76531e-01
       H -8.37779e-02  7.31244e-01 -7.65948e-01
       H -3.79526e-01 -9.57567e-01  8.25634e-01
       L  6.55295e+01  2.44797e+00  4.53243e+00
       L  2.60895e+00  6.67888e+00  7.84169e-01
6
# CELL(abcABC):  459.05226   459.05226   459.05226    90.00000    90.00000    90.00000  Step:          17  Bead:       0 x_centroid{angstrom}  cell{atomic_unit}
       C -3.38070e-01 -1.08176e-01  7.60995e-02
       O  8.39940e-01  2.63931e-01 -1.76103e-01
       H -8.90573e-02  7.16063e-01 -7.59920e-01
       H -3.83712e-01 -9.48322e-01  8.26407e-01
       L  6.56601e+01  2.49776e+00  4.62424e+00
       L  2.59561e+00  6.71388e+00  7.09319e-01
6
# CELL(abcABC):  459.05226   459.05226   459.05226    90.00000    90.00000    90.00000  Step:          18  Bead:       0 x_centroid{angstrom}  cell{atomic_unit}
       C -3.36307e-01 -1.07730e-01  7.47234e-02
       O  8.39509e-01  2.63511e-01 -1.75555e-01
       H -9.75022e-02  7.06501e-01 -7.54378e-01
       H -3.89462e-01 -9.37468e-01  8.28634e-01
       L  6.57692e+01  2.58388e+00  4.62931e+00
       L  2.56689e+00  6.75668e+00  5.91636e-01
6
# CELL(abcABC):  459.05226   459.05226   459.05226    90.00000    90.00000    90.00000  Step:          19  Bead:       0 x_centroid{angstrom}  cell{atomic_unit}
       C -3.34225e-01 -1.07795e-01  7.34421e-02
       O  8.38845e-01  2.63095e-01 -1.74996e-01
       H -1.05106e-01  7.02847e-01 -7.51157e-01
       H -3.96109e-01 -9.26529e-01  8.31895e-01
       L  6.58246e+01  2.63581e+00  4.60959e+00
       L  2.46332e+00  6.86369e+00  4.41889e-01
6
# CELL(abcABC):  459.05226   459.05226   459.05226    90.00000    90.00000    90.00000  Step:          20  Bead:       0 x_centroid{angstrom}  cell{atomic_unit}
       C -3.31660e-01 -1.07880e-01  7.20004e-02
       O  8.37633e-01  2.62240e-01 -1.74322e-01
       H -1.10438e-01  7.06074e-01 -7.50116e-01
       H -4.02099e-01 -9.15288e-01  8.37451e-01
       L  6.59100e+01  2.68222e+00  4.57961e+00
       L  2.35230e+00  7.03014e+00  2.54455e-01
6
# CELL(abcABC):  459.05226   459.05226   459.05226    90.00000    90.00000    90.00000  Step:          21  Bead:       0 x_centroid{angstrom}  cell{atomic_unit}
       C -3.28610e-01 -1.08430e-01  7.06774e-02
       O  8.35658e-01  2.61322e-01 -1.73801e-01
       H -1.11298e-01  7.15284e-01 -7.50644e-01
       H -4.06221e-01 -9.03504e-01  8.45606e-01
       L  6.60064e+01  2.69918e+00  4.53269e+00
       L  2.24342e+00  7.23422e+00  6.76890e-02
6
# CELL(abcABC):  459.05226   459.05226   459.05226    90.00000    90.00000    90.00000  Step:          22  Bead:       0 x_centroid{angstrom}  cell{atomic_unit}
       C -3.25120e-01 -1.09541e-01  6.94432e-02
       O  8.33239e-01  2.60574e-01 -1.73296e-01
       H -1.10992e-01  7.27111e-01 -7.54549e-01
       H -4.09734e-01 -8.90296e-01  8.56332e-01
       L  6.61764e+01  2.68427e+00  4.45002e+00
       L  2.09850e+00  7.43273e+00 -9.69900e-02
6
# CELL(abcABC):  459.05226   459.05226   459.05226    90.00000    90.00000    90.00000  Step:          23  Bead:       0 x_centroid{angstrom}  cell{atomic_unit}
       C -3.21502e-01 -1.10666e-01  6.84467e-02
       O  8.30891e-01  2.59799e-01 -1.73052e-01
       H -1.12462e-01  7.39463e-01 -7.58724e-01
       H -4.14136e-01 -8.77059e-01  8.68653e-01
       L  6.64136e+01  2.65886e+00  4.33828e+00
       L  1.91954e+00  7.65058e+00 -2.51904e-01
6
# CELL(abcABC):  459.05226   459.05226   459.05226    90.00000    90.00000    90.00000  Step:          24  Bead:       0 x_centroid{angstrom}  cell{atomic_unit}
       C -3.18064e-01 -1.11574e-01  6.76015e-02
       O  8.28904e-01  2.58970e-01 -1.72805e-01
       H -1.18063e-01  7.48069e-01 -7.63597e-01
       H -4.17967e-01 -8.61800e-01  8.79830e-01
       L  6.66444e+01  2.64659e+00  4.20258e+00
       L  1.70320e+00  7.85750e+00 -3.88376e-01
6
# CELL(abcABC):  459.05226   459.05226   459.05226    90.00000    90.00000    90.00000  Step:          25  Bead:       0 x_centroid{angstrom}  cell{atomic_unit}
       C -3.15141e-01 -1.11812e-01  6.68304e-02
       O  8.27740e-01  2.57886e-01 -1.72582e-01
       H -1.29751e-01  7.52769e-01 -7.67322e-01
       H -4.22732e-01 -8.46470e-01  8.89336e-01
       L  6.69583e+01  2.52800e+00  4.05988e+00
       L  1.59184e+00  8.01045e+00 -5.09091e-01
6
# CELL(abcABC):  459.05226   459.05226   459.05226    90.00000    90.00000    90.00000  Step:          26  Bead:       0 x_centroid{angstrom}  cell{atomic_unit}
       C -3.12396e-01 -1.11897e-01  6.60245e-02
       O  8.26984e-01  2.56976e-01 -1.72380e-01
       H -1.44045e-01  7.53243e-01 -7.70319e-01
       H -4.29242e-01 -8.31430e-01  8.98927e-01
       L  6.72736e+01  2.31353e+00  3.83774e+00
       L  1.42676e+00  8.13882e+00 -6.42601e-01
6
# CELL(abcABC):  459.05226   459.05226   459.05226    90.00000    90.00000    90.00000  Step:          27  Bead:       0 x_centroid{angstrom}  cell{atomic_unit}
       C -3.09749e-01 -1.11905e-01  6.54558e-02
       O  8.26281e-01  2.56309e-01 -1.72194e-01
       H -1.57990e-01  7.49709e-01 -7.72851e-01
       H -4.35816e-01 -8.17157e-01  9.05466e-01
       L  6.76779e+01  2.05942e+00  3.59645e+00
       L  1.27341e+00  8.26728e+00 -7.29762e-01
6
# CELL(abcABC):  459.05226   459.05226   459.05226    90.00000    90.00000    90.00000  Step:          28  Bead:       0 x_centroid{angstrom}  cell{atomic_unit}
       C -3.07123e-01 -1.11722e-01  6.48138e-02
       O  8.25249e-01  2.55848e-01 -1.72154e-01
       H -1.67955e-01  7.43332e-01 -7.71919e-01
       H -4.40945e-01 -8.05514e-01  9.11758e-01
       L  6.81705e+01  1.72279e+00  3.30848e+00
       L  1.13319e+00  8.37819e+00 -8.20918e-01
6
# CELL(abcABC):  459.05226   459.05226   459.05226    90.00000    90.00000    90.00000  Step:          29  Bead:       0 x_centroid{angstrom}  cell{atomic_unit}
       C -3.04283e-01 -1.11432e-01  6.40608e-02
       O  8.23650e-01  2.55543e-01 -1.72219e-01
       H -1.71918e-01  7.34607e-01 -7.69369e-01
       H -4.45701e-01 -7.95287e-01  9.19423e-01
       L  6.87734e+01  1.42051e+00  2.96642e+00
       L  9.98852e-01  8.45898e+00 -8.61106e-01
6
# CELL(abcABC):  459.05226   459.05226   459.05226    90.00000    90.00000    90.00000  Step:          30  Bead:       0 x_centroid{angstrom}  cell{atomic_unit}
       C -3.01350e-01 -1.10835e-01  6.32041e-02
       O  8.21677e-01  2.55197e-01 -1.72436e-01
       H -1.71843e-01  7.24500e-01 -7.64932e-01
       H -4.49728e-01 -7.86676e-01  9.28862e-01
       L  6.95068e+01  1.09273e+00  2.57453e+00
       L  8.26914e-01  8.55489e+00 -8.96757e-01
6
# CELL(abcABC):  459.05226   459.05226   459.05226    90.00000    90.00000    90.00000  Step:          31  Bead:       0 x_centroid{angstrom}  cell{atomic_unit}
       C -2.98409e-01 -1.10337e-01  6.23662e-02
       O  8.19501e-01  2.55014e-01 -1.72660e-01
       H -1.69471e-01  7.13886e-01 -7.60525e-01
       H -4.52940e-01 -7.78928e-01  9.38226e-01
       L  7.03301e+01  7.93215e-01  2.15225e+00
       L  6.48711e-01  8.58600e+00 -9.00603e-01
6
# CELL(abcABC):  459.05226   459.05226   459.05226    90.00000    90.00000    90.00000  Step:          32  Bead:       0 x_centroid{angstrom}  cell{atomic_unit}
       C -2.95634e-01 -1.09821e-01  6.15482e-02
       O  8.17444e-01  2.54912e-01 -1.72908e-01
       H -1.67845e-01  7.02704e-01 -7.55584e-01
       H -4.55420e-01 -7.72120e-01  9.47192e-01
       L  7.12953e+01  4.73424e-01  1.75337e+00
       L  4.85590e-01  8.58896e+00 -8.97512e-01
6
# CELL(abcABC):  459.05226   459.05226   459.05226    90.00000    90.00000    90.00000  Step:          33  Bead:       0 x_centroid{angstrom}  cell{atomic_unit}
       C -2.93474e-01 -1.09144e-01  6.06966e-02
       O  8.16162e-01  2.54775e-01 -1.72904e-01
       H -1.71014e-01  6.90847e-01 -7.52389e-01
       H -4.58082e-01 -7.65977e-01  9.54285e-01
       L  7.22711e+01  1.88087e-01  1.30932e+00
       L  3.11274e-01  8.55801e+00 -8.36918e-01
6
# CELL(abcABC):  459.05226   459.05226   459.05226    90.00000    90.00000    90.00000  Step:          34  Bead:       0 x_centroid{angstrom}  cell{atomic_unit}
       C -2.92085e-01 -1.08241e-01  5.99542e-02
       O  8.15725e-01  2.54525e-01 -1.72798e-01
       H -1.79698e-01  6.77925e-01 -7.51056e-01
       H -4.59480e-01 -7.59659e-01  9.60349e-01
       L  7.32592e+01 -9.11099e-02  8.58824e-01
       L  2.07386e-01  8.49297e+00 -8.08966e-01
6
# CELL(abcABC):  459.05226   459.05226   459.05226    90.00000    90.00000    90.00000  Step:          35  Bead:       0 x_centroid{angstrom}  cell{atomic_unit}
       C -2.90993e-01 -1.07254e-01  5.92695e-02
       O  8.15846e-01  2.54187e-01 -1.72554e-01
       H -1.92983e-01  6.64942e-01 -7.51057e-01
       H -4.61630e-01 -7.52877e-01  9.64861e-01
       L  7.42707e+01 -3.68456e-01  4.04225e-01
       L  8.48964e-02  8.40299e+00 -7.63397e-01
6
# CELL(abcABC):  459.05226   459.05226   459.05226    90.00000    90.00000    90.00000  Step:          36  Bead:       0 x_centroid{angstrom}  cell{atomic_unit}
       C -2.90206e-01 -1.06588e-01  5.87517e-02
       O  8.16208e-01  2.53918e-01 -1.72353e-01
       H -2.07071e-01  6.55014e-01 -7.53162e-01
       H -4.63159e-01 -7.46418e-01  9.70159e-01
       L  7.53114e+01 -6.68813e-01 -2.20023e-02
       L -2.30974e-02  8.35526e+00 -7.41250e-01
6
# CELL(abcABC):  459.05226   459.05226   459.05226    90.00000    90.00000    90.00000  Step:          37  Bead:       0 x_centroid{angstrom}  cell{atomic_unit}
       C -2.89423e-01 -1.06132e-01  5.84894e-02
       O  8.16405e-01  2.53450e-01 -1.72289e-01
       H -2.18819e-01  6.50468e-01 -7.58693e-01
       H -4.64436e-01 -7.39705e-01  9.78048e-01
       L  7.64942e+01 -1.00588e+00 -4.92028e-01
       L -1.57156e-01  8.37922e+00 -7.12171e-01
6
# CELL(abcABC):  459.05226   459.05226   459.05226    90.00000    90.00000    90.00000  Step:          38  Bead:       0 x_centroid{angstrom}  cell{atomic_unit}
       C -2.88449e-01 -1.05958e-01  5.82687e-02
       O  8.16231e-01  2.52850e-01 -1.72035e-01
       H -2.27371e-01  6.50901e-01 -7.68883e-01
       H -4.65366e-01 -7.32581e-01  9.87026e-01
       L  7.77764e+01 -1.31593e+00 -9.07238e-01
       L -2.76117e-01  8.47165e+00 -6.47130e-01
6
# CELL(abcABC):  459.05226   459.05226   459.05226    90.00000    90.00000    90.00000  Step:          39  Bead:       0 x_centroid{angstrom}  cell{atomic_unit}
       C -2.87412e-01 -1.05686e-01  5.80879e-02
       O  8.15823e-01  2.51888e-01 -1.71669e-01
       H -2.34205e-01  6.54584e-01 -7.83286e-01
       H -4.65132e-01 -7.24213e-01  9.97924e-01
       L  7.91637e+01 -1.53967e+00 -1.31830e+00
       L -3.52272e-01  8.66188e+00 -5.04514e-01
6
# CELL(abcABC):  459.05226   459.05226   459.05226    90.00000    90.00000    90.00000  Step:          40  Bead:       0 x_centroid{angstrom}  cell{atomic_unit}
       C -2.86610e-01 -1.05551e-01  5.80165e-02
       O  8.15414e-01  2.50790e-01 -1.71304e-01
       H -2.39056e-01  6.61052e-01 -7.98596e-01
       H -4.64079e-01 -7.14868e-01  1.00843e+00
       L  8.06170e+01 -1.72270e+00 -1.73202e+00
       L -4.63579e-01  8.87227e+00 -3.67555e-01
6
# CELL(abcABC):  459.05226   459.05226   459.05226    90.00000    90.00000    90.00000  Step:          41  Bead:       0 x_centroid{angstrom}  cell{atomic_unit}
       C -2.85888e-01 -1.05266e-01  5.80518e-02
       O  8.15143e-01  2.49480e-01 -1.70926e-01
       H -2.45783e-01  6.68986e-01 -8.14606e-01
       H -4.62489e-01 -7.05460e-01  1.01816e+00
       L  8.22389e+01 -1.86719e+00 -2.12760e+00
       L -5.53820e-01  9.09196e+00 -2.04202e-01
6
# CELL(abcABC):  459.05226   459.05226   459.05226    90.00000    90.00000    90.00000  Step:          42  Bead:       0 x_centroid{angstrom}  cell{atomic_unit}
       C -2.85136e-01 -1.05108e-01  5.78169e-02
       O  8.15092e-01  2.48162e-01 -1.70354e-01
       H -2.55130e-01  6.75998e-01 -8.29490e-01
       H -4.62205e-01 -6.93446e-01  1.02689e+00
       L  8.40226e+01 -2.05432e+00 -2.51469e+00
       L -6.71680e-01  9.32170e+00 -7.20905e-02
6
# CELL(abcABC):  459.05226   459.05226   459.05226    90.00000    90.00000    90.00000  Step:          43  Bead:       0 x_centroid{angstrom}  cell{atomic_unit}
       C -2.84410e-01 -1.04745e-01  5.76453e-02
       O  8.15467e-01  2.46730e-01 -1.69775e-01
       H -2.69495e-01  6.81597e-01 -8.42721e-01
       H -4.63364e-01 -6.80716e-01  1.03313e+00
       L  8.58087e+01 -2.16948e+00 -2.90135e+00
       L -7.63442e-01  9.56266e+00  4.04259e-02
6
# CELL(abcABC):  459.05226   459.05226   459.05226    90.00000    90.00000    90.00000  Step:          44  Bead:       0 x_centroid{angstrom}  cell{atomic_unit}
       C -2.83173e-01 -1.04254e-01  5.75353e-02
       O  8.15794e-01  2.45308e-01 -1.69250e-01
       H -2.88766e-01  6.85098e-01 -8.54229e-01
       H -4.64961e-01 -6.67567e-01  1.03774e+00
       L  8.76343e+01 -2.21846e+00 -3.26173e+00
       L -8.60334e-01  9.75650e+00  1.70157e-01
6
# CELL(abcABC):  459.05226   459.05226   459.05226    90.00000    90.00000    90.00000  Step:          45  Bead:       0 x_centroid{angstrom}  cell{atomic_unit}
       C -2.81730e-01 -1.03851e-01  5.71170e-02
       O  8.16209e-01  2.44121e-01 -1.68587e-01
       H -3.12628e-01  6.85743e-01 -8.61949e-01
       H -4.65910e-01 -6.54279e-01  1.04006e+00
       L  8.96239e+01 -2.23278e+00 -3.61604e+00
       L -9.71213e-01  9.95437e+00  2.79867e-01
6
# CELL(abcABC):  459.05226   459.05226   459.05226    90.00000    90.00000    90.00000  Step:          46  Bead:       0 x_centroid{angstrom}  cell{atomic_unit}
       C -2.79854e-01 -1.03058e-01  5.60955e-02
       O  8.16561e-01  2.42799e-01 -1.67622e-01
       H -3.39962e-01  6.83381e-01 -8.67376e-01
       H -4.67629e-01 -6.40529e-01  1.04247e+00
       L  9.17472e+01 -2.16677e+00 -3.93669e+00
       L -1.03733e+00  1.01523e+01  3.57484e-01
6
# CELL(abcABC):  459.05226   459.05226   459.05226    90.00000    90.00000    90.00000  Step:          47  Bead:       0 x_centroid{angstrom}  cell{atomic_unit}
       C -2.77549e-01 -1.01885e-01  5.43889e-02
       O  8.16849e-01  2.41152e-01 -1.66324e-01
       H -3.71936e-01  6.80260e-01 -8.68996e-01
       H -4.68822e-01 -6.25404e-01  1.04396e+00
       L  9.39340e+01 -2.07181e+00 -4.27374e+00
       L -1.15007e+00  1.03765e+01  4.38800e-01
6
# CELL(abcABC):  459.05226   459.05226   459.05226    90.00000    90.00000    90.00000  Step:          48  Bead:       0 x_centroid{angstrom}  cell{atomic_unit}
       C -2.74565e-01 -1.00365e-01  5.24798e-02
       O  8.16785e-01  2.39253e-01 -1.65099e-01
       H -4.05190e-01  6.75723e-01 -8.68028e-01
       H -4.71302e-01 -6.09037e-01  1.04639e+00
       L  9.62226e+01 -1.97282e+00 -4.56961e+00
       L -1.25781e+00  1.06427e+01  5.59052e-01
6
# CELL(abcABC):  459.05226   459.05226   459.05226    90.00000    90.00000    90.00000  Step:          49  Bead:       0 x_centroid{angstrom}  cell{atomic_unit}
       C -2.70934e-01 -9.82111e-02  5.01214e-02
       O  8.16455e-01  2.36916e-01 -1.63868e-01
       H -4.41849e-01  6.70128e-01 -8.63569e-01
       H -4.73956e-01 -5.92232e-01  1.05052e+00
       L  9.86810e+01 -1.87082e+00 -4.76851e+00
       L -1.34751e+00  1.09477e+01  7.01837e-01
6
# CELL(abcABC):  459.05226   459.05226   459.05226    90.00000    90.00000    90.00000  Step:          50  Bead:       0 x_centroid{angstrom}  cell{atomic_unit}
       C -2.66576e-01 -9.53599e-02  4.72486e-02
       O  8.15942e-01  2.34063e-01 -1.62473e-01
       H -4.84104e-01  6.63936e-01 -8.56330e-01
       H -4.76885e-01 -5.74961e-01  1.05538e+00
       L  1.01320e+02 -1.79328e+00 -4.89964e+00
       L -1.40683e+00  1.12845e+01  8.30468e-01
6
# CELL(abcABC):  459.05226   459.05226   459.05226    90.00000    90.00000    90.00000  Step:          51  Bead:       0 x_centroid{angstrom}  cell{atomic_unit}
       C -2.61987e-01 -9.13558e-02  4.35421e-02
       O  8.15723e-01  2.30373e-01 -1.60817e-01
       H -5.32467e-01  6.55336e-01 -8.45914e-01
       H -4.81177e-01 -5.55741e-01  1.06281e+00
       L  1.04067e+02 -1.76988e+00 -5.00439e+00
       L -1.51402e+00  1.17244e+01  9.97531e-01
6
# CELL(abcABC):  459.05226   459.05226   459.05226    90.00000    90.00000    90.00000  Step:          52  Bead:       0 x_centroid{angstrom}  cell{atomic_unit}
       C -2.56711e-01 -8.65594e-02  3.92595e-02
       O  8.15349e-01  2.26035e-01 -1.59113e-01
       H -5.86484e-01  6.45031e-01 -8.31171e-01
       H -4.85593e-01 -5.34010e-01  1.07197e+00
       L  1.06938e+02 -1.73010e+00 -5.03996e+00
       L -1.62461e+00  1.21927e+01  1.16406e+00
6
# CELL(abcABC):  459.05226   459.05226   459.05226    90.00000    90.00000    90.00000  Step:          53  Bead:       0 x_centroid{angstrom}  cell{atomic_unit}
       C -2.51166e-01 -8.09992e-02  3.48764e-02
       O  8.15190e-01  2.21300e-01 -1.57544e-01
       H -6.46553e-01  6.31605e-01 -8.13245e-01
       H -4.90644e-01 -5.12054e-01  1.08127e+00
       L  1.09867e+02 -1.65451e+00 -5.00776e+00
       L -1.66926e+00  1.27831e+01  1.31396e+00
6
# CELL(abcABC):  459.05226   459.05226   459.05226    90.00000    90.00000    90.00000  Step:          54  Bead:       0 x_centroid{angstrom}  cell{atomic_unit}
       C -2.46001e-01 -7.48455e-02  2.99555e-02
       O  8.15819e-01  2.16252e-01 -1.55766e-01
       H -7.12894e-01  6.15122e-01 -7.91168e-01
       H -4.97430e-01 -4.89227e-01  1.08948e+00
       L  1.12862e+02 -1.52274e+00 -4.93560e+00
       L -1.74160e+00  1.34905e+01  1.46975e+00
6
# CELL(abcABC):  459.05226   459.05226   459.05226    90.00000    90.00000    90.00000  Step:          55  Bead:       0 x_centroid{angstrom}  cell{atomic_unit}
       C -2.41630e-01 -6.80195e-02  2.50217e-02
       O  8.17514e-01  2.10936e-01 -1.54114e-01
       H -7.83843e-01  5.94560e-01 -7.64320e-01
       H -5.07059e-01 -4.66141e-01  1.09506e+00
       L  1.15873e+02 -1.34585e+00 -4.82612e+00
       L -1.81345e+00  1.42831e+01  1.63206e+00
6
# CELL(abcABC):  459.05226   459.05226   459.05226    90.00000    90.00000    90.00000  Step:          56  Bead:       0 x_centroid{angstrom}  cell{atomic_unit}
       C -2.38477e-01 -6.02278e-02  2.02290e-02
       O  8.20513e-01  2.05326e-01 -1.52558e-01
       H -8.58925e-01  5.67881e-01 -7.33177e-01
       H -5.18719e-01 -4.43853e-01  1.09614e+00
       L  1.18877e+02 -1.13557e+00 -4.67459e+00
       L -1.93511e+00  1.51593e+01  1.81378e+00
6
# CELL(abcABC):  459.05226   459.05226   459.05226    90.00000    90.00000    90.00000  Step:          57  Bead:       0 x_centroid{angstrom}  cell{atomic_unit}
       C -2.37533e-01 -5.21433e-02  1.54343e-02
       O  8.25372e-01  1.99806e-01 -1.51066e-01
       H -9.35691e-01  5.36217e-01 -6.97417e-01
       H -5.31924e-01 -4.21518e-01  1.09365e+00
       L  1.21900e+02 -9.79344e-01 -4.48180e+00
       L -2.05464e+00  1.61206e+01  1.95689e+00
6
# CELL(abcABC):  459.05226   459.05226   459.05226    90.00000    90.00000    90.00000  Step:          58  Bead:       0 x_centroid{angstrom}  cell{atomic_unit}
       C -2.38739e-01 -4.33327e-02  1.10011e-02
       O  8.31971e-01  1.94259e-01 -1.49819e-01
       H -1.01267e+00  4.98146e-01 -6.57668e-01
       H -5.46878e-01 -4.01005e-01  1.08676e+00
       L  1.24894e+02 -8.30940e-01 -4.28757e+00
       L -2.19038e+00  1.71313e+01  2.09333e+00
6
# CELL(abcABC):  459.05226   459.05226   459.05226    90.00000    90.00000    90.00000  Step:          59  Bead:       0 x_centroid{angstrom}  cell{atomic_unit}
       C -2.42872e-01 -3.43761e-02  7.15051e-03
       O  8.40682e-01  1.88895e-01 -1.48765e-01
       H -1.08802e+00  4.56082e-01 -6.15878e-01
       H -5.62116e-01 -3.81162e-01  1.07396e+00
       L  1.27848e+02 -6.81634e-01 -4.07132e+00
       L -2.26252e+00  1.81418e+01  2.17645e+00
6
# CELL(abcABC):  459.05226   459.05226   459.05226    90.00000    90.00000    90.00000  Step:          60  Bead:       0 x_centroid{angstrom}  cell{atomic_unit}
       C -2.49187e-01 -2.52410e-02  3.77506e-03
       O  8.50794e-01  1.83807e-01 -1.47884e-01
       H -1.16059e+00  4.09748e-01 -5.72533e-01
       H -5.76339e-01 -3.63537e-01  1.05668e+00
       L  1.30709e+02 -5.66322e-01 -3.82798e+00
       L -2.29557e+00  1.91648e+01  2.27144e+00
6
# CELL(abcABC):  459.05226   459.05226   459.05226    90.00000    90.00000    90.00000  Step:          61  Bead:       0 x_centroid{angstrom}  cell{atomic_unit}
       C -2.56793e-01 -1.58489e-02  8.87411e-04
       O  8.61668e-01  1.78813e-01 -1.47077e-01
       H -1.22928e+00  3.61076e-01 -5.30471e-01
       H -5.91186e-01 -3.48127e-01  1.03598e+00
       L  1.33564e+02 -4.31336e-01 -3.51473e+00
       L -2.28306e+00  2.01570e+01  2.36148e+00
6
# CELL(abcABC):  459.05226   459.05226   459.05226    90.00000    90.00000    90.00000  Step:          62  Bead:       0 x_centroid{angstrom}  cell{atomic_unit}
       C -2.64525e-01 -6.47362e-03 -1.42930e-03
       O  8.72307e-01  1.73936e-01 -1.46350e-01
       H -1.29307e+00  3.10942e-01 -4.90452e-01
       H -6.05683e-01 -3.32886e-01  1.01178e+00
       L  1.36459e+02 -2.73927e-01 -3.17871e+00
       L -2.33395e+00  2.10960e+01  2.51036e+00
6
# CELL(abcABC):  459.05226   459.05226   459.05226    90.00000    90.00000    90.00000  Step:          63  Bead:       0 x_centroid{angstrom}  cell{atomic_unit}
       C -2.71860e-01  3.16263e-03 -2.61852e-03
       O  8.82379e-01  1.68897e-01 -1.46067e-01
       H -1.35221e+00  2.61763e-01 -4.54848e-01
       H -6.20622e-01 -3.19131e-01  9.85491e-01
       L  1.39477e+02 -1.18248e-01 -2.75701e+00
       L -2.39739e+00  2.20008e+01  2.72252e+00
6
# CELL(abcABC):  459.05226   459.05226   459.05226    90.00000    90.00000    90.00000  Step:          64  Bead:       0 x_centroid{angstrom}  cell{atomic_unit}
       C -2.77683e-01  1.26168e-02 -2.74404e-03
       O  8.91081e-01  1.64062e-01 -1.46202e-01
       H -1.40706e+00  2.14493e-01 -4.25284e-01
       H -6.36212e-01 -3.08323e-01  9.59181e-01
       L  1.42625e+02  4.19514e-02 -2.27681e+00
       L -2.42604e+00  2.28757e+01  2.94926e+00
6
# CELL(abcABC):  459.05226   459.05226   459.05226    90.00000    90.00000    90.00000  Step:          65  Bead:       0 x_centroid{angstrom}  cell{atomic_unit}
       C -2.82142e-01  2.22228e-02 -1.99552e-03
       O  8.98285e-01  1.59172e-01 -1.46705e-01
       H -1.45594e+00  1.68980e-01 -4.03192e-01
       H -6.50311e-01 -3.00147e-01  9.35789e-01
       L  1.45873e+02  1.54128e-01 -1.75651e+00
       L -2.45114e+00  2.36542e+01  3.11646e+00
6
# CELL(abcABC):  459.05226   459.05226   459.05226    90.00000    90.00000    90.00000  Step:          66  Bead:       0 x_centroid{angstrom}  cell{atomic_unit}
       C -2.85102e-01  3.13504e-02 -2.19168e-04