6
# CELL(abcABC):  459.05226   459.05226   459.05226    90.00000    90.00000    90.00000  Step:           0  Bead:       0 x_centroid{angstrom}  cell{atomic_unit}
       C -3.39887e-01 -1.13437e-01  8.06659e-02
       O  8.43483e-01  2.62672e-01 -1.81512e-01
       H -7.35799e-02  8.16467e-01 -6.61432e-01
       H -4.30016e-01 -9.65701e-01  7.62278e-01
       L  6.13458e+01  0.00000e+00  0.00000e+00
       L  0.00000e+00  8.59064e+00  0.00000e+00
6
# CELL(abcABC):  459.05226   459.05226   459.05226    90.00000    90.00000    90.00000  Step:           1  Bead:       0 x_centroid{angstrom}  cell{atomic_unit}
       C -3.37647e-01 -1.10985e-01  8.30846e-02
       O  8.42089e-01  2.61131e-01 -1.82640e-01
       H -7.87981e-02  8.10274e-01 -6.72022e-01
       H -4.29524e-01 -9.64122e-01  7.61889e-01
       L  6.13051e+01  8.75960e-03 -7.44691e-02
       L  3.44678e-01  8.31617e+00  1.79028e-01
6
# CELL(abcABC):  459.05226   459.05226   459.05226    90.00000    90.00000    90.00000  Step:           2  Bead:       0 x_centroid{angstrom}  cell{atomic_unit}
       C -3.35145e-01 -1.08351e-01  8.58109e-02
       O  8.40381e-01  2.59438e-01 -1.83932e-01
       H -8.31845e-02  8.04860e-01 -6.83903e-01
       H -4.27986e-01 -9.63125e-01  7.61766e-01
       L  6.12396e+01  4.39130e-02 -1.69761e-01
       L  6.74134e-01  8.07321e+00  3.05900e-01
6
# CELL(abcABC):  459.05226   459.05226   459.05226    90.00000    90.00000    90.00000  Step:           3  Bead:       0 x_centroid{angstrom}  cell{atomic_unit}
       C -3.32743e-01 -1.05857e-01  8.84745e-02
       O  8.38707e-01  2.57747e-01 -1.85194e-01
       H -8.73068e-02  8.00896e-01 -6.96224e-01
       H -4.26081e-01 -9.61918e-01  7.62350e-01
       L  6.11971e+01  1.12499e-01 -2.46156e-01
       L  1.02128e+00  7.82026e+00  4.41310e-01
6
# CELL(abcABC):  459.05226   459.05226   459.05226    90.00000    90.00000    90.00000  Step:           4  Bead:       0 x_centroid{angstrom}  cell{atomic_unit}
       C -3.30208e-01 -1.03486e-01  9.10809e-02
       O  8.36837e-01  2.56182e-01 -1.86479e-01
       H -9.02894e-02  7.96912e-01 -7.09092e-01
       H -4.23771e-01 -9.61309e-01  7.64517e-01
       L  6.11784e+01  2.66371e-01 -3.18369e-01
       L  1.31479e+00  7.58412e+00  5.88337e-01
6
# CELL(abcABC):  459.05226   459.05226   459.05226    90.00000    90.00000    90.00000  Step:           5  Bead:       0 x_centroid{angstrom}  cell{atomic_unit}
       C -3.27514e-01 -1.00630e-01  9.34540e-02
       O  8.34897e-01  2.54431e-01 -1.87578e-01
       H -9.47920e-02  7.92070e-01 -7.22091e-01
       H -4.20759e-01 -9.62686e-01  7.66648e-01
       L  6.11949e+01  4.18912e-01 -3.96567e-01
       L  1.64263e+00  7.40545e+00  7.28173e-01
6
# CELL(abcABC):  459.05226   459.05226   459.05226    90.00000    90.00000    90.00000  Step:           6  Bead:       0 x_centroid{angstrom}  cell{atomic_unit}
       C -3.24930e-01 -9.76443e-02  9.58796e-02
       O  8.33035e-01  2.52722e-01 -1.88888e-01
       H -9.83188e-02  7.85518e-01 -7.32829e-01
       H -4.18679e-01 -9.64583e-01  7.69233e-01
       L  6.12238e+01  5.80440e-01 -4.62129e-01
       L  1.99404e+00  7.23720e+00  8.73292e-01
6
# CELL(abcABC):  459.05226   459.05226   459.05226    90.00000    90.00000    90.00000  Step:           7  Bead:       0 x_centroid{angstrom}  cell{atomic_unit}
       C -3.22609e-01 -9.49603e-02  9.84069e-02
       O  8.31498e-01  2.51241e-01 -1.90297e-01
       H -1.02830e-01  7.77872e-01 -7.43611e-01
       H -4.17609e-01 -9.65405e-01  7.72231e-01
       L  6.12273e+01  7.56251e-01 -5.66244e-01
       L  2.33397e+00  7.04495e+00  1.04655e+00
6
# CELL(abcABC):  459.05226   459.05226   459.05226    90.00000    90.00000    90.00000  Step:           8  Bead:       0 x_centroid{angstrom}  cell{atomic_unit}
       C -3.20360e-01 -9.21417e-02  1.00663e-01
       O  8.30155e-01  2.49683e-01 -1.91583e-01
       H -1.08274e-01  7.69436e-01 -7.53010e-01
       H -4.17823e-01 -9.65825e-01  7.75135e-01
       L  6.12579e+01  9.55109e-01 -6.38157e-01
       L  2.63356e+00  6.84925e+00  1.17168e+00
6
# CELL(abcABC):  459.05226   459.05226   459.05226    90.00000    90.00000    90.00000  Step:           9  Bead:       0 x_centroid{angstrom}  cell{atomic_unit}
       C -3.18265e-01 -8.91719e-02  1.03072e-01
       O  8.28947e-01  2.48066e-01 -1.93031e-01
       H -1.13844e-01  7.60457e-01 -7.62957e-01
       H -4.18232e-01 -9.66570e-01  7.79319e-01
       L  6.12886e+01  1.09705e+00 -6.64696e-01
       L  2.91643e+00  6.70900e+00  1.26027e+00
6
# CELL(abcABC):  459.05226   459.05226   459.05226    90.00000    90.00000    90.00000  Step:          10  Bead:       0 x_centroid{angstrom}  cell{atomic_unit}
       C -3.16472e-01 -8.61126e-02  1.05370e-01
       O  8.27865e-01  2.46388e-01 -1.94452e-01
       H -1.18609e-01  7.51287e-01 -7.71994e-01
       H -4.17818e-01 -9.67238e-01  7.83483e-01
       L  6.13332e+01  1.25064e+00 -6.98949e-01
       L  3.21070e+00  6.57937e+00  1.36590e+00
6
# CELL(abcABC):  459.05226   459.05226   459.05226    90.00000    90.00000    90.00000  Step:          11  Bead:       0 x_centroid{angstrom}  cell{atomic_unit}
       C -3.15259e-01 -8.29560e-02  1.07465e-01
       O  8.27063e-01  2.44522e-01 -1.95925e-01
       H -1.22284e-01  7.43310e-01 -7.79520e-01
       H -4.16034e-01 -9.67307e-01  7.89377e-01
       L  6.13831e+01  1.40669e+00 -7.09922e-01
       L  3.43841e+00  6.53529e+00  1.47758e+00
6
# CELL(abcABC):  459.05226   459.05226   459.05226    90.00000    90.00000    90.00000  Step:          12  Bead:       0 x_centroid{angstrom}  cell{atomic_unit}
       C -3.14276e-01 -7.97058e-02  1.09432e-01
       O  8.26289e-01  2.42458e-01 -1.97315e-01
       H -1.23816e-01  7.36020e-01 -7.87330e-01
       H -4.14046e-01 -9.66063e-01  7.95778e-01
       L  6.14286e+01  1.54742e+00 -7.01270e-01
       L  3.63357e+00  6.51976e+00  1.53933e+00
6
# CELL(abcABC):  459.05226   459.05226   459.05226    90.00000    90.00000    90.00000  Step:          13  Bead:       0 x_centroid{angstrom}  cell{atomic_unit}
       C -3.13767e-01 -7.65645e-02  1.11124e-01
       O  8.25827e-01  2.40421e-01 -1.98621e-01
       H -1.25025e-01  7.29763e-01 -7.94126e-01
       H -4.11698e-01 -9.64931e-01  8.03068e-01
       L  6.14759e+01  1.59718e+00 -6.55136e-01
       L  3.82100e+00  6.54099e+00  1.63263e+00
6
# CELL(abcABC):  459.05226   459.05226   459.05226    90.00000    90.00000    90.00000  Step:          14  Bead:       0 x_centroid{angstrom}  cell{atomic_unit}
       C -3.13426e-01 -7.32522e-02  1.12614e-01
       O  8.25485e-01  2.38031e-01 -1.99855e-01
       H -1.26494e-01  7.26068e-01 -7.99658e-01
       H -4.08985e-01 -9.62785e-01  8.10385e-01
       L  6.14852e+01  1.57465e+00 -6.32946e-01
       L  4.01328e+00  6.57488e+00  1.69325e+00
6
# CELL(abcABC):  459.05226   459.05226   459.05226    90.00000    90.00000    90.00000  Step:          15  Bead:       0 x_centroid{angstrom}  cell{atomic_unit}
       C -3.13327e-01 -7.02921e-02  1.14292e-01
       O  8.25373e-01  2.35907e-01 -2.01293e-01
       H -1.28831e-01  7.22252e-01 -8.04900e-01
       H -4.06088e-01 -9.60506e-01  8.18422e-01
       L  6.14700e+01  1.51476e+00 -6.09623e-01
       L  4.10361e+00  6.60331e+00  1.73244e+00
6
# CELL(abcABC):  459.05226   459.05226   459.05226    90.00000    90.00000    90.00000  Step:          16  Bead:       0 x_centroid{angstrom}  cell{atomic_unit}
       C -3.13211e-01 -6.74089e-02  1.16013e-01
       O  8.25262e-01  2.33711e-01 -2.02967e-01
       H -1.31569e-01  7.18610e-01 -8.07796e-01
       H -4.02990e-01 -9.56312e-01  8.27347e-01
       L  6.14731e+01  1.43804e+00 -5.34942e-01
       L  4.15939e+00  6.58628e+00  1.74232e+00
6
# CELL(abcABC):  459.05226   459.05226   459.05226    90.00000    90.00000    90.00000  Step:          17  Bead:       0 x_centroid{angstrom}  cell{atomic_unit}
       C -3.13272e-01 -6.45685e-02  1.17845e-01
       O  8.25347e-01  2.31373e-01 -2.04743e-01
       H -1.34358e-01  7.14628e-01 -8.10513e-01
       H -4.00873e-01 -9.48983e-01  8.36334e-01
       L  6.15082e+01  1.33446e+00 -4.13440e-01
       L  4.20819e+00  6.55722e+00  1.77307e+00
6
# CELL(abcABC):  459.05226   459.05226   459.05226    90.00000    90.00000    90.00000  Step:          18  Bead:       0 x_centroid{angstrom}  cell{atomic_unit}
       C -3.13317e-01 -6.17679e-02  1.19823e-01
       O  8.25336e-01  2.28944e-01 -2.06824e-01
       H -1.35683e-01  7.10961e-01 -8.11279e-01
       H -3.98865e-01 -9.40085e-01  8.46467e-01
       L  6.15127e+01  1.22766e+00 -2.76017e-01
       L  4.23723e+00  6.56022e+00  1.80792e+00
6
# CELL(abcABC):  459.05226   459.05226   459.05226    90.00000    90.00000    90.00000  Step:          19  Bead:       0 x_centroid{angstrom}  cell{atomic_unit}
       C -3.13714e-01 -5.92082e-02  1.21675e-01
       O  8.25460e-01  2.26429e-01 -2.09045e-01
       H -1.34814e-01  7.08743e-01 -8.09600e-01
       H -3.96920e-01 -9.28403e-01  8.57888e-01
       L  6.14497e+01  1.14159e+00 -1.23250e-01
       L  4.21315e+00  6.55645e+00  1.80318e+00
6
# CELL(abcABC):  459.05226   459.05226   459.05226    90.00000    90.00000    90.00000  Step:          20  Bead:       0 x_centroid{angstrom}  cell{atomic_unit}
       C -3.14469e-01 -5.68386e-02  1.23648e-01
       O  8.25733e-01  2.24062e-01 -2.11350e-01
       H -1.32667e-01  7.05765e-01 -8.07435e-01
       H -3.94342e-01 -9.16025e-01  8.68789e-01
       L  6.13999e+01  1.01065e+00  2.06004e-02
       L  4.14646e+00  6.58850e+00  1.69571e+00
6
# CELL(abcABC):  459.05226   459.05226   459.05226    90.00000    90.00000    90.00000  Step:          21  Bead:       0 x_centroid{angstrom}  cell{atomic_unit}
       C -3.15540e-01 -5.44404e-02  1.25741e-01
       O  8.26201e-01  2.21649e-01 -2.13741e-01
       H -1.30567e-01  7.02489e-01 -8.04922e-01
       H -3.91051e-01 -9.02998e-01  8.79269e-01
       L  6.13755e+01  9.07295e-01  1.92827e-01
       L  4.07414e+00  6.62720e+00  1.57590e+00
6
# CELL(abcABC):  459.05226   459.05226   459.05226    90.00000    90.00000    90.00000  Step:          22  Bead:       0 x_centroid{angstrom}  cell{atomic_unit}
       C -3.16699e-01 -5.20132e-02  1.27905e-01
       O  8.26700e-01  2.19160e-01 -2.16231e-01
       H -1.27968e-01  6.98938e-01 -8.01267e-01
       H -3.87687e-01 -8.88807e-01  8.89337e-01
       L  6.13571e+01  8.07130e-01  3.41972e-01
       L  3.94953e+00  6.62547e+00  1.45534e+00
6
# CELL(abcABC):  459.05226   459.05226   459.05226    90.00000    90.00000    90.00000  Step:          23  Bead:       0 x_centroid{angstrom}  cell{atomic_unit}
       C -3.18013e-01 -4.97544e-02  1.30139e-01
       O  8.27289e-01  2.16739e-01 -2.18812e-01
       H -1.24638e-01  6.95580e-01 -7.96767e-01
       H -3.84641e-01 -8.73894e-01  8.99194e-01
       L  6.13578e+01  7.28992e-01  4.21434e-01
       L  3.81561e+00  6.64705e+00  1.35541e+00
6
# CELL(abcABC):  459.05226   459.05226   459.05226    90.00000    90.00000    90.00000  Step:          24  Bead:       0 x_centroid{angstrom}  cell{atomic_unit}
       C -3.19515e-01 -4.77847e-02  1.31962e-01
       O  8.28085e-01  2.14439e-01 -2.21169e-01
       H -1.22961e-01  6.92858e-01 -7.91797e-01
       H -3.80968e-01 -8.58128e-01  9.09953e-01
       L  6.13761e+01  6.59600e-01  4.92855e-01
       L  3.64501e+00  6.69125e+00  1.21931e+00
6
# CELL(abcABC):  459.05226   459.05226   459.05226    90.00000    90.00000    90.00000  Step:          25  Bead:       0 x_centroid{angstrom}  cell{atomic_unit}
       C -3.21332e-01 -4.59993e-02  1.33909e-01
       O  8.29206e-01  2.12164e-01 -2.23658e-01
       H -1.20940e-01  6.90761e-01 -7.85536e-01
       H -3.79063e-01 -8.41207e-01  9.20018e-01
       L  6.14430e+01  6.11536e-01  6.15375e-01
       L  3.44692e+00  6.77570e+00  1.05243e+00
6
# CELL(abcABC):  459.05226   459.05226   459.05226    90.00000    90.00000    90.00000  Step:          26  Bead:       0 x_centroid{angstrom}  cell{atomic_unit}
       C -3.23153e-01 -4.44077e-02  1.35724e-01
       O  8.30310e-01  2.10082e-01 -2.26041e-01
       H -1.18095e-01  6.87280e-01 -7.78887e-01
       H -3.77699e-01 -8.23677e-01  9.29580e-01
       L  6.15367e+01  5.63983e-01  7.52201e-01
       L  3.29620e+00  6.87321e+00  8.77488e-01
6
# CELL(abcABC):  459.05226   459.05226   459.05226    90.00000    90.00000    90.00000  Step:          27  Bead:       0 x_centroid{angstrom}  cell{atomic_unit}
       C -3.24884e-01 -4.30476e-02  1.37403e-01
       O  8.31438e-01  2.07892e-01 -2.28286e-01
       H -1.16821e-01  6.86717e-01 -7.72591e-01
       H -3.76214e-01 -8.04645e-01  9.39005e-01
       L  6.16767e+01  5.87840e-01  8.63947e-01
       L  3.08583e+00  7.02668e+00  6.28232e-01
6
# CELL(abcABC):  459.05226   459.05226   459.05226    90.00000    90.00000    90.00000  Step:          28  Bead:       0 x_centroid{angstrom}  cell{atomic_unit}
       C -3.26446e-01 -4.17904e-02  1.39228e-01
       O  8.32356e-01  2.05598e-01 -2.30636e-01
       H -1.14974e-01  6.88001e-01 -7.66851e-01
       H -3.73990e-01 -7.84633e-01  9.48902e-01
       L  6.18465e+01  5.93720e-01  9.56409e-01
       L  2.85278e+00  7.26977e+00  3.83009e-01
6
# CELL(abcABC):  459.05226   459.05226   459.05226    90.00000    90.00000    90.00000  Step:          29  Bead:       0 x_centroid{angstrom}  cell{atomic_unit}
       C -3.27973e-01 -4.06920e-02  1.41228e-01
       O  8.33113e-01  2.03364e-01 -2.33160e-01
       H -1.11375e-01  6.91068e-01 -7.61128e-01
       H -3.71393e-01 -7.65514e-01  9.59516e-01
       L  6.20458e+01  6.26240e-01  1.03025e+00
       L  2.62822e+00  7.58320e+00  8.82065e-02
6
# CELL(abcABC):  459.05226   459.05226   459.05226    90.00000    90.00000    90.00000  Step:          30  Bead:       0 x_centroid{angstrom}  cell{atomic_unit}
       C -3.29590e-01 -3.97011e-02  1.43306e-01
       O  8.33901e-01  2.01115e-01 -2.35620e-01
       H -1.06516e-01  6.94801e-01 -7.56938e-01
       H -3.69474e-01 -7.45551e-01  9.69761e-01
       L  6.22970e+01  6.55871e-01  1.04537e+00
       L  2.35638e+00  7.89459e+00 -1.83417e-01
6
# CELL(abcABC):  459.05226   459.05226   459.05226    90.00000    90.00000    90.00000  Step:          31  Bead:       0 x_centroid{angstrom}  cell{atomic_unit}
       C -3.30987e-01 -3.88393e-02  1.45618e-01
       O  8.34686e-01  1.99021e-01 -2.38128e-01
       H -1.02537e-01  6.98435e-01 -7.52733e-01
       H -3.69285e-01 -7.26451e-01  9.77939e-01
       L  6.25818e+01  7.12506e-01  1.05222e+00
       L  2.08962e+00  8.28309e+00 -4.04635e-01
6
# CELL(abcABC):  459.05226   459.05226   459.05226    90.00000    90.00000    90.00000  Step:          32  Bead:       0 x_centroid{angstrom}  cell{atomic_unit}
       C -3.32317e-01 -3.75068e-02  1.47941e-01
       O  8.35655e-01  1.96731e-01 -2.40669e-01
       H -1.00427e-01  7.01386e-01 -7.48102e-01
       H -3.70947e-01 -7.09150e-01  9.86040e-01
       L  6.28948e+01  7.75506e-01  1.06484e+00
       L  1.82295e+00  8.61448e+00 -5.80703e-01
6
# CELL(abcABC):  459.05226   459.05226   459.05226    90.00000    90.00000    90.00000  Step:          33  Bead:       0 x_centroid{angstrom}  cell{atomic_unit}
       C -3.33827e-01 -3.61065e-02  1.50603e-01
       O  8.36907e-01  1.94497e-01 -2.43486e-01
       H -9.89147e-02  7.02614e-01 -7.42660e-01
       H -3.74400e-01 -6.91809e-01  9.93682e-01
       L  6.32476e+01  8.51863e-01  1.07126e+00
       L  1.57875e+00  8.90925e+00 -7.29760e-01
6
# CELL(abcABC):  459.05226   459.05226   459.05226    90.00000    90.00000    90.00000  Step:          34  Bead:       0 x_centroid{angstrom}  cell{atomic_unit}
       C -3.35262e-01 -3.45669e-02  1.53086e-01
       O  8.38319e-01  1.92408e-01 -2.46127e-01
       H -9.93951e-02  7.01776e-01 -7.38204e-01
       H -3.79295e-01 -6.76313e-01  1.00161e+00
       L  6.35990e+01  9.32914e-01  1.07954e+00
       L  1.33761e+00  9.11965e+00 -8.38323e-01
6
# CELL(abcABC):  459.05226   459.05226   459.05226    90.00000    90.00000    90.00000  Step:          35  Bead:       0 x_centroid{angstrom}  cell{atomic_unit}
       C -3.36656e-01 -3.31848e-02  1.55583e-01
       O  8.39851e-01  1.90623e-01 -2.48835e-01
       H -1.00232e-01  7.00458e-01 -7.31667e-01
       H -3.86244e-01 -6.63266e-01  1.00833e+00
       L  6.39978e+01  1.01237e+00  1.11255e+00
       L  1.08925e+00  9.28156e+00 -9.34502e-01
6
# CELL(abcABC):  459.05226   459.05226   459.05226    90.00000    90.00000    90.00000  Step:          36  Bead:       0 x_centroid{angstrom}  cell{atomic_unit}
       C -3.38280e-01 -3.18351e-02  1.58335e-01
       O  8.41576e-01  1.89138e-01 -2.51775e-01
       H -1.01206e-01  6.96441e-01 -7.25587e-01
       H -3.93376e-01 -6.51843e-01  1.01617e+00
       L  6.44087e+01  1.08109e+00  1.12404e+00
       L  8.14124e-01  9.37690e+00 -1.04137e+00
6
# CELL(abcABC):  459.05226   459.05226   459.05226    90.00000    90.00000    90.00000  Step:          37  Bead:       0 x_centroid{angstrom}  cell{atomic_unit}
       C -3.39685e-01 -3.02289e-02  1.61270e-01
       O  8.42967e-01  1.87691e-01 -2.54774e-01
       H -9.83164e-02  6.92144e-01 -7.21292e-01
       H -4.01674e-01 -6.43733e-01  1.02459e+00
       L  6.48358e+01  1.13102e+00  1.08947e+00
       L  5.15187e-01  9.36461e+00 -1.14210e+00
6
# CELL(abcABC):  459.05226   459.05226   459.05226    90.00000    90.00000    90.00000  Step:          38  Bead:       0 x_centroid{angstrom}  cell{atomic_unit}
       C -3.40596e-01 -2.87231e-02  1.64045e-01
       O  8.43812e-01  1.86528e-01 -2.57632e-01
       H -9.23968e-02  6.87277e-01 -7.18313e-01
       H -4.10259e-01 -6.38332e-01  1.03399e+00
       L  6.53361e+01  1.17205e+00  1.02169e+00
       L  2.13738e-01  9.27261e+00 -1.22397e+00
6
# CELL(abcABC):  459.05226   459.05226   459.05226    90.00000    90.00000    90.00000  Step:          39  Bead:       0 x_centroid{angstrom}  cell{atomic_unit}
       C -3.41007e-01 -2.73273e-02  1.67077e-01
       O  8.44151e-01  1.85693e-01 -2.60552e-01
       H -8.51039e-02  6.82143e-01 -7.18043e-01
       H -4.18169e-01 -6.36504e-01  1.04405e+00
       L  6.59454e+01  1.16579e+00  9.06778e-01
       L -1.44279e-01  9.15674e+00 -1.32564e+00
6
# CELL(abcABC):  459.05226   459.05226   459.05226    90.00000    90.00000    90.00000  Step:          40  Bead:       0 x_centroid{angstrom}  cell{atomic_unit}
       C -3.41353e-01 -2.59943e-02  1.70046e-01
       O  8.44448e-01  1.84986e-01 -2.63380e-01
       H -7.85424e-02  6.78237e-01 -7.19023e-01
       H -4.25496e-01 -6.37134e-01  1.05470e+00
       L  6.65480e+01  1.09654e+00  7.25575e-01
       L -4.39863e-01  9.00141e+00 -1.42627e+00
6
# CELL(abcABC):  459.05226   459.05226   459.05226    90.00000    90.00000    90.00000  Step:          41  Bead:       0 x_centroid{angstrom}  cell{atomic_unit}
       C -3.41566e-01 -2.43917e-02  1.73071e-01
       O  8.44900e-01  1.84179e-01 -2.66003e-01
       H -7.60774e-02  6.73968e-01 -7.21906e-01
       H -4.32720e-01 -6.39034e-01  1.06332e+00
       L  6.70737e+01  1.03143e+00  5.28349e-01
       L -7.33740e-01  8.84657e+00 -1.48799e+00
6
# CELL(abcABC):  459.05226   459.05226   459.05226    90.00000    90.00000    90.00000  Step:          42  Bead:       0 x_centroid{angstrom}  cell{atomic_unit}
       C -3.41897e-01 -2.27670e-02  1.76247e-01
       O  8.45868e-01  1.83287e-01 -2.68584e-01
       H -7.88418e-02  6.71677e-01 -7.27076e-01
       H -4.41476e-01 -6.41811e-01  1.07176e+00
       L  6.75541e+01  9.34998e-01  3.01272e-01
       L -1.04056e+00  8.68613e+00 -1.54267e+00
6
# CELL(abcABC):  459.05226   459.05226   459.05226    90.00000    90.00000    90.00000  Step:          43  Bead:       0 x_centroid{angstrom}  cell{atomic_unit}
       C -3.42456e-01 -2.11942e-02  1.79365e-01
       O  8.47194e-01  1.82418e-01 -2.70877e-01
       H -8.42395e-02  6.69645e-01 -7.33316e-01
       H -4.50525e-01 -6.44582e-01  1.07742e+00
       L  6.79551e+01  8.82228e-01  6.11518e-02
       L -1.31766e+00  8.48583e+00 -1.63134e+00
6
# CELL(abcABC):  459.05226   459.05226   459.05226    90.00000    90.00000    90.00000  Step:          44  Bead:       0 x_centroid{angstrom}  cell{atomic_unit}
       C -3.42814e-01 -1.96957e-02  1.82207e-01
       O  8.48479e-01  1.81540e-01 -2.72713e-01
       H -9.13069e-02  6.68623e-01 -7.41860e-01
       H -4.59652e-01 -6.47339e-01  1.08141e+00
       L  6.83189e+01  8.18949e-01 -2.07673e-01
       L -1.57204e+00  8.27869e+00 -1.67518e+00
6
# CELL(abcABC):  459.05226   459.05226   459.05226    90.00000    90.00000    90.00000  Step:          45  Bead:       0 x_centroid{angstrom}  cell{atomic_unit}
       C -3.42799e-01 -1.81857e-02  1.85110e-01
       O  8.49318e-01  1.80645e-01 -2.74429e-01
       H -9.60794e-02  6.67934e-01 -7.51788e-01
       H -4.68437e-01 -6.50296e-01  1.08415e+00
       L  6.86781e+01  7.54773e-01 -4.41660e-01
       L -1.81820e+00  8.08317e+00 -1.72793e+00
6
# CELL(abcABC):  459.05226   459.05226   459.05226    90.00000    90.00000    90.00000  Step:          46  Bead:       0 x_centroid{angstrom}  cell{atomic_unit}
       C -3.42160e-01 -1.66851e-02  1.88110e-01
       O  8.49347e-01  1.79680e-01 -2.76013e-01
       H -9.66420e-02  6.68257e-01 -7.63360e-01
       H -4.76001e-01 -6.53066e-01  1.08527e+00
       L  6.90586e+01  6.80918e-01 -7.05979e-01
       L -2.11583e+00  7.95207e+00 -1.74800e+00
6
# CELL(abcABC):  459.05226   459.05226   459.05226    90.00000    90.00000    90.00000  Step:          47  Bead:       0 x_centroid{angstrom}  cell{atomic_unit}
       C -3.40964e-01 -1.51426e-02  1.90976e-01
       O  8.48611e-01  1.78694e-01 -2.77363e-01
       H -9.37769e-02  6.68317e-01 -7.75585e-01
       H -4.81451e-01 -6.55715e-01  1.08492e+00
       L  6.94351e+01  5.78246e-01 -9.79108e-01
       L -2.45093e+00  7.79936e+00 -1.74780e+00
6
# CELL(abcABC):  459.05226   459.05226   459.05226    90.00000    90.00000    90.00000  Step:          48  Bead:       0 x_centroid{angstrom}  cell{atomic_unit}
       C -3.39647e-01 -1.34318e-02  1.93889e-01
       O  8.47473e-01  1.77636e-01 -2.78656e-01
       H -8.87186e-02  6.67540e-01 -7.87560e-01
       H -4.84126e-01 -6.58412e-01  1.08283e+00
       L  6.97671e+01  5.01666e-01 -1.23719e+00
       L -2.78869e+00  7.65288e+00 -1.72589e+00
6
# CELL(abcABC):  459.05226   459.05226   459.05226    90.00000    90.00000    90.00000  Step:          49  Bead:       0 x_centroid{angstrom}  cell{atomic_unit}
       C -3.38317e-01 -1.14513e-02  1.96413e-01
       O  8.46284e-01  1.76477e-01 -2.79639e-01
       H -8.38378e-02  6.65575e-01 -7.97780e-01
       H -4.86021e-01 -6.61518e-01  1.07871e+00
       L  7.01115e+01  4.48324e-01 -1.52241e+00
       L -3.06751e+00  7.46385e+00 -1.66726e+00
6
# CELL(abcABC):  459.05226   459.05226   459.05226    90.00000    90.00000    90.00000  Step:          50  Bead:       0 x_centroid{angstrom}  cell{atomic_unit}
       C -3.37181e-01 -9.59054e-03  1.98441e-01
       O  8.45447e-01  1.75398e-01 -2.80258e-01
       H -8.29877e-02  6.62806e-01 -8.06203e-01
       H -4.87161e-01 -6.63651e-01  1.07289e+00
       L  7.04363e+01  3.81615e-01 -1.75654e+00
       L -3.32659e+00  7.25999e+00 -1.61579e+00
6
# CELL(abcABC):  459.05226   459.05226   459.05226    90.00000    90.00000    90.00000  Step:          51  Bead:       0 x_centroid{angstrom}  cell{atomic_unit}
       C -3.36073e-01 -7.79777e-03  2.00038e-01
       O  8.44805e-01  1.74297e-01 -2.80567e-01
       H -8.61574e-02  6.59850e-01 -8.13342e-01
       H -4.87041e-01 -6.64407e-01  1.06599e+00
       L  7.07642e+01  3.09220e-01 -1.99796e+00
       L -3.60016e+00  7.01432e+00 -1.54738e+00
6
# CELL(abcABC):  459.05226   459.05226   459.05226    90.00000    90.00000    90.00000  Step:          52  Bead:       0 x_centroid{angstrom}  cell{atomic_unit}
       C -3.34932e-01 -5.83668e-03  2.01466e-01
       O  8.44472e-01  1.73108e-01 -2.80800e-01
       H -9.35137e-02  6.55679e-01 -8.18585e-01
       H -4.88024e-01 -6.64491e-01  1.05800e+00
       L  7.11127e+01  1.84711e-01 -2.24828e+00
       L -3.87934e+00  6.71981e+00 -1.42859e+00
6
# CELL(abcABC):  459.05226   459.05226   459.05226    90.00000    90.00000    90.00000  Step:          53  Bead:       0 x_centroid{angstrom}  cell{atomic_unit}
       C -3.33943e-01 -3.61151e-03  2.02649e-01
       O  8.44321e-01  1.71638e-01 -2.81033e-01
       H -1.03616e-01  6.51827e-01 -8.21790e-01
       H -4.87366e-01 -6.63600e-01  1.05080e+00
       L  7.14666e+01  9.12568e-02 -2.47382e+00
       L -4.12906e+00  6.39156e+00 -1.19315e+00
6
# CELL(abcABC):  459.05226   459.05226   459.05226    90.00000    90.00000    90.00000  Step:          54  Bead:       0 x_centroid{angstrom}  cell{atomic_unit}
       C -3.32831e-01 -1.38125e-03  2.03549e-01
       O  8.43927e-01  1.70158e-01 -2.81281e-01
       H -1.12413e-01  6.49098e-01 -8.22874e-01
       H -4.85678e-01 -6.63703e-01  1.04504e+00
       L  7.18119e+01 -4.19609e-02 -2.64879e+00
       L -4.29640e+00  6.05834e+00 -9.25964e-01
6
# CELL(abcABC):  459.05226   459.05226   459.05226    90.00000    90.00000    90.00000  Step:          55  Bead:       0 x_centroid{angstrom}  cell{atomic_unit}
       C -3.31276e-01  9.36735e-04  2.04073e-01
       O  8.42923e-01  1.68430e-01 -2.81437e-01
       H -1.17486e-01  6.48641e-01 -8.22042e-01
       H -4.83318e-01 -6.63181e-01  1.04040e+00
       L  7.21822e+01 -1.98623e-01 -2.78329e+00
       L -4.43932e+00  5.75143e+00 -6.88542e-01
6
# CELL(abcABC):  459.05226   459.05226   459.05226    90.00000    90.00000    90.00000  Step:          56  Bead:       0 x_centroid{angstrom}  cell{atomic_unit}
       C -3.29277e-01  3.11964e-03  2.04237e-01
       O  8.41229e-01  1.66821e-01 -2.81552e-01
       H -1.19885e-01  6.49202e-01 -8.19630e-01
       H -4.77982e-01 -6.63927e-01  1.03777e+00
       L  7.26219e+01 -3.61231e-01 -2.90770e+00
       L -4.59838e+00  5.40037e+00 -4.45452e-01
6
# CELL(abcABC):  459.05226   459.05226   459.05226    90.00000    90.00000    90.00000  Step:          57  Bead:       0 x_centroid{angstrom}  cell{atomic_unit}
       C -3.26886e-01  5.86936e-03  2.03996e-01
       O  8.38899e-01  1.64780e-01 -2.81723e-01
       H -1.20239e-01  6.50191e-01 -8.15321e-01
       H -4.69331e-01 -6.64984e-01  1.03899e+00
       L  7.30862e+01 -5.70875e-01 -3.02385e+00
       L -4.70944e+00  5.05781e+00 -2.16121e-01
6
# CELL(abcABC):  459.05226   459.05226   459.05226    90.00000    90.00000    90.00000  Step:          58  Bead:       0 x_centroid{angstrom}  cell{atomic_unit}
       C -3.24172e-01  8.81535e-03  2.03413e-01
       O  8.36246e-01  1.62583e-01 -2.81757e-01
       H -1.21597e-01  6.52471e-01 -8.10816e-01
       H -4.58442e-01 -6.67196e-01  1.04194e+00
       L  7.35421e+01 -7.77999e-01 -3.16966e+00
       L -4.73600e+00  4.70525e+00 -3.70773e-03
6
# CELL(abcABC):  459.05226   459.05226   459.05226    90.00000    90.00000    90.00000  Step:          59  Bead:       0 x_centroid{angstrom}  cell{atomic_unit}
       C -3.21602e-01  1.15868e-02  2.02590e-01
       O  8.33770e-01  1.60354e-01 -2.81651e-01
       H -1.25939e-01  6.56913e-01 -8.06119e-01
       H -4.45743e-01 -6.68968e-01  1.04528e+00
       L  7.40102e+01 -9.99596e-01 -3.21469e+00
       L -4.62972e+00  4.35855e+00  2.08148e-01
6
# CELL(abcABC):  459.05226   459.05226   459.05226    90.00000    90.00000    90.00000  Step:          60  Bead:       0 x_centroid{angstrom}  cell{atomic_unit}
       C -3.19312e-01  1.47411e-02  2.01299e-01
       O  8.31784e-01  1.57727e-01 -2.81247e-01
       H -1.35485e-01  6.62159e-01 -8.01374e-01
       H -4.32252e-01 -6.69779e-01  1.04940e+00
       L  7.44061e+01 -1.26406e+00 -3.26031e+00
       L -4.45665e+00  4.02550e+00  4.46135e-01
6
# CELL(abcABC):  459.05226   459.05226   459.05226    90.00000    90.00000    90.00000  Step:          61  Bead:       0 x_centroid{angstrom}  cell{atomic_unit}
       C -3.16856e-01  1.81874e-02  1.99717e-01
       O  8.29849e-01  1.54739e-01 -2.80747e-01
       H -1.48680e-01  6.68759e-01 -7.94798e-01
       H -4.17969e-01 -6.69699e-01  1.05365e+00
       L  7.48139e+01 -1.50951e+00 -3.28611e+00
       L -4.21289e+00  3.69850e+00  6.20607e-01
6
# CELL(abcABC):  459.05226   459.05226   459.05226    90.00000    90.00000    90.00000  Step:          62  Bead:       0 x_centroid{angstrom}  cell{atomic_unit}
       C -3.14304e-01  2.18268e-02  1.98097e-01
       O  8.28106e-01  1.51547e-01 -2.80086e-01
       H -1.64967e-01  6.75234e-01 -7.89368e-01
       H -4.04767e-01 -6.68623e-01  1.05691e+00
       L  7.51837e+01 -1.69566e+00 -3.23873e+00
       L -3.96413e+00  3.41459e+00  7.97993e-01
6
# CELL(abcABC):  459.05226   459.05226   459.05226    90.00000    90.00000    90.00000  Step:          63  Bead:       0 x_centroid{angstrom}  cell{atomic_unit}
       C -3.11422e-01  2.55139e-02  1.96642e-01
       O  8.26044e-01  1.48223e-01 -2.79555e-01
       H -1.81071e-01  6.82270e-01 -7.84367e-01
       H -3.90668e-01 -6.66607e-01  1.06070e+00
       L  7.56087e+01 -1.84566e+00 -3.17145e+00
       L -3.66111e+00  3.15005e+00  9.75829e-01
6
# CELL(abcABC):  459.05226   459.05226   459.05226    90.00000    90.00000    90.00000  Step:          64  Bead:       0 x_centroid{angstrom}  cell{atomic_unit}
       C -3.08331e-01  2.91224e-02  1.94958e-01
       O  8.23824e-01  1.44948e-01 -2.78921e-01
       H -1.97289e-01  6.88527e-01 -7.79224e-01
       H -3.76503e-01 -6.63670e-01  1.06542e+00
       L  7.61104e+01 -1.98939e+00 -3.07905e+00
       L -3.31103e+00  2.92580e+00  1.11456e+00
6
# CELL(abcABC):  459.05226   459.05226   459.05226    90.00000    90.00000    90.00000  Step:          65  Bead:       0 x_centroid{angstrom}  cell{atomic_unit}
       C -3.04698e-01  3.26174e-02  1.93179e-01
       O  8.20985e-01  1.41717e-01 -2.78218e-01
       H -2.10174e-01  6.95489e-01 -7.72556e-01
       H -3.62406e-01 -6.60825e-01  1.06866e+00
       L  7.67120e+01 -2.16467e+00 -2.92577e+00
       L -2.88344e+00  2.77704e+00  1.22614e+00
6
# CELL(abcABC):  459.05226   459.05226   459.05226    90.00000    90.00000    90.00000  Step:          66  Bead:       0 x_centroid{angstrom}  cell{atomic_unit}
       C -3.00776e-01  3.62666e-02  1.91302e-01