6
# CELL(abcABC):  459.05226   459.05226   459.05226    90.00000    90.00000    90.00000  Step:           0  Bead:       0 x_centroid{angstrom}  cell{atomic_unit}
       C -3.39887e-01 -1.13437e-01  8.06659e-02
       O  8.43483e-01  2.62672e-01 -1.81512e-01
       H -7.35799e-02  8.16467e-01 -6.61432e-01
       H -4.30016e-01 -9.65701e-01  7.62278e-01
       L  0.00000e+00  0.00000e+00  0.00000e+00
       L  0.00000e+00  0.00000e+00  0.00000e+00
6
# CELL(abcABC):  459.05226   459.05226   459.05226    90.00000    90.00000    90.00000  Step:           1  Bead:       0 x_centroid{angstrom}  cell{atomic_unit}
       C -3.41869e-01 -1.13469e-01  8.07624e-02
       O  8.44826e-01  2.62589e-01 -1.81308e-01
       H -6.82283e-02  8.15842e-01 -6.69965e-01
       H -4.32526e-01 -9.62935e-01  7.66545e-01
       L -5.05288e-01 -1.86522e-01 -3.28680e-01
       L -4.92623e-01 -6.50878e-01  8.02458e-02
6
# CELL(abcABC):  459.05226   459.05226   459.05226    90.00000    90.00000    90.00000  Step:           2  Bead:       0 x_centroid{angstrom}  cell{atomic_unit}
       C -3.44059e-01 -1.13723e-01  8.07872e-02
       O  8.46218e-01  2.62682e-01 -1.81064e-01
       H -6.11493e-02  8.15159e-01 -6.77748e-01
       H -4.35058e-01 -9.60241e-01  7.70331e-01
       L -9.85870e-01 -3.44066e-01 -7.09630e-01
       L -1.00004e+00 -1.33527e+00  1.71720e-01
6
# CELL(abcABC):  459.05226   459.05226   459.05226    90.00000    90.00000    90.00000  Step:           3  Bead:       0 x_centroid{angstrom}  cell{atomic_unit}
       C -3.46101e-01 -1.13956e-01  8.08483e-02
       O  8.47391e-01  2.62734e-01 -1.80923e-01
       H -5.22322e-02  8.14518e-01 -6.83956e-01
       H -4.37732e-01 -9.57216e-01  7.73671e-01
       L -1.46383e+00 -4.72643e-01 -1.02936e+00
       L -1.49944e+00 -1.98463e+00  2.87343e-01
6
# CELL(abcABC):  459.05226   459.05226   459.05226    90.00000    90.00000    90.00000  Step:           4  Bead:       0 x_centroid{angstrom}  cell{atomic_unit}
       C -3.48230e-01 -1.14026e-01  8.09069e-02
       O  8.48409e-01  2.62693e-01 -1.80776e-01
       H -4.07427e-02  8.13846e-01 -6.88923e-01
       H -4.39461e-01 -9.54651e-01  7.75715e-01
       L -1.97456e+00 -6.18791e-01 -1.35928e+00
       L -2.00455e+00 -2.60296e+00  4.33669e-01
6
# CELL(abcABC):  459.05226   459.05226   459.05226    90.00000    90.00000    90.00000  Step:           5  Bead:       0 x_centroid{angstrom}  cell{atomic_unit}
       C -3.50278e-01 -1.13921e-01  8.07773e-02
       O  8.49099e-01  2.62562e-01 -1.80592e-01
       H -2.60823e-02  8.12266e-01 -6.92696e-01
       H -4.40090e-01 -9.51841e-01  7.78246e-01
       L -2.56197e+00 -8.05479e-01 -1.74259e+00
       L -2.48013e+00 -3.16060e+00  5.75189e-01
6
# CELL(abcABC):  459.05226   459.05226   459.05226    90.00000    90.00000    90.00000  Step:           6  Bead:       0 x_centroid{angstrom}  cell{atomic_unit}
       C -3.52438e-01 -1.13957e-01  8.07425e-02
       O  8.49699e-01  2.62494e-01 -1.80615e-01
       H -8.50676e-03  8.10263e-01 -6.95297e-01
       H -4.40849e-01 -9.47970e-01  7.81737e-01
       L -3.15975e+00 -9.26634e-01 -2.15521e+00
       L -2.97064e+00 -3.68236e+00  7.63801e-01
6
# CELL(abcABC):  459.05226   459.05226   459.05226    90.00000    90.00000    90.00000  Step:           7  Bead:       0 x_centroid{angstrom}  cell{atomic_unit}
       C -3.54359e-01 -1.14291e-01  8.05585e-02
       O  8.49835e-01  2.62625e-01 -1.80567e-01
       H  1.23484e-02  8.08383e-01 -6.95874e-01
       H -4.40398e-01 -9.43889e-01  7.83902e-01
       L -3.74614e+00 -1.02421e+00 -2.57954e+00
       L -3.45456e+00 -4.15484e+00  9.21217e-01
6
# CELL(abcABC):  459.05226   459.05226   459.05226    90.00000    90.00000    90.00000  Step:           8  Bead:       0 x_centroid{angstrom}  cell{atomic_unit}
       C -3.56601e-01 -1.14650e-01  8.05015e-02
       O  8.49840e-01  2.62784e-01 -1.80609e-01
       H  3.89100e-02  8.07035e-01 -6.97165e-01
       H -4.39772e-01 -9.40477e-01  7.86701e-01
       L -4.30276e+00 -1.14331e+00 -2.98980e+00
       L -3.92438e+00 -4.60517e+00  1.02289e+00
6
# CELL(abcABC):  459.05226   459.05226   459.05226    90.00000    90.00000    90.00000  Step:           9  Bead:       0 x_centroid{angstrom}  cell{atomic_unit}
       C -3.58984e-01 -1.15195e-01  8.05956e-02
       O  8.49634e-01  2.63021e-01 -1.80632e-01
       H  6.98438e-02  8.06277e-01 -7.00530e-01
       H -4.38475e-01 -9.36714e-01  7.89453e-01
       L -4.85556e+00 -1.25594e+00 -3.36621e+00
       L -4.38837e+00 -4.98646e+00  1.14426e+00
6
# CELL(abcABC):  459.05226   459.05226   459.05226    90.00000    90.00000    90.00000  Step:          10  Bead:       0 x_centroid{angstrom}  cell{atomic_unit}
       C -3.61433e-01 -1.16070e-01  8.07857e-02
       O  8.48925e-01  2.63598e-01 -1.80666e-01
       H  1.08533e-01  8.07017e-01 -7.04035e-01
       H -4.36209e-01 -9.35973e-01  7.91335e-01
       L -5.38970e+00 -1.32588e+00 -3.67842e+00
       L -4.82970e+00 -5.30611e+00  1.26668e+00
6
# CELL(abcABC):  459.05226   459.05226   459.05226    90.00000    90.00000    90.00000  Step:          11  Bead:       0 x_centroid{angstrom}  cell{atomic_unit}
       C -3.64055e-01 -1.17153e-01  8.12214e-02
       O  8.47791e-01  2.64174e-01 -1.80983e-01
       H  1.54520e-01  8.10575e-01 -7.06684e-01
       H -4.32455e-01 -9.35584e-01  7.93928e-01
       L -5.88559e+00 -1.42433e+00 -3.99589e+00
       L -5.22982e+00 -5.54366e+00  1.38525e+00
6
# CELL(abcABC):  459.05226   459.05226   459.05226    90.00000    90.00000    90.00000  Step:          12  Bead:       0 x_centroid{angstrom}  cell{atomic_unit}
       C -3.67217e-01 -1.18366e-01  8.18295e-02
       O  8.46271e-01  2.64762e-01 -1.81402e-01
       H  2.09032e-01  8.17271e-01 -7.11086e-01
       H -4.24762e-01 -9.37012e-01  7.97780e-01
       L -6.26614e+00 -1.50359e+00 -4.21742e+00
       L -5.58174e+00 -5.74058e+00  1.51121e+00
6
# CELL(abcABC):  459.05226   459.05226   459.05226    90.00000    90.00000    90.00000  Step:          13  Bead:       0 x_centroid{angstrom}  cell{atomic_unit}
       C -3.70783e-01 -1.19937e-01  8.26035e-02
       O  8.44474e-01  2.65407e-01 -1.81916e-01
       H  2.71048e-01  8.27427e-01 -7.17170e-01
       H -4.15462e-01 -9.38578e-01  8.02819e-01
       L -6.53435e+00 -1.60885e+00 -4.38680e+00
       L -5.85971e+00 -5.81106e+00  1.65893e+00
6
# CELL(abcABC):  459.05226   459.05226   459.05226    90.00000    90.00000    90.00000  Step:          14  Bead:       0 x_centroid{angstrom}  cell{atomic_unit}
       C -3.74908e-01 -1.21844e-01  8.35602e-02
       O  8.42436e-01  2.66153e-01 -1.82337e-01
       H  3.41358e-01  8.40624e-01 -7.27239e-01
       H -4.04065e-01 -9.40836e-01  8.08143e-01
       L -6.72388e+00 -1.71118e+00 -4.52019e+00
       L -6.06219e+00 -5.83906e+00  1.83499e+00
6
# CELL(abcABC):  459.05226   459.05226   459.05226    90.00000    90.00000    90.00000  Step:          15  Bead:       0 x_centroid{angstrom}  cell{atomic_unit}
       C -3.79077e-01 -1.24075e-01  8.45997e-02
       O  8.39967e-01  2.66872e-01 -1.82544e-01
       H  4.16620e-01  8.58131e-01 -7.42949e-01
       H -3.90306e-01 -9.43156e-01  8.14699e-01
       L -6.83552e+00 -1.83052e+00 -4.61758e+00
       L -6.21631e+00 -5.75088e+00  2.02733e+00
6
# CELL(abcABC):  459.05226   459.05226   459.05226    90.00000    90.00000    90.00000  Step:          16  Bead:       0 x_centroid{angstrom}  cell{atomic_unit}
       C -3.83680e-01 -1.26668e-01  8.59435e-02
       O  8.37409e-01  2.67410e-01 -1.82758e-01
       H  4.95220e-01  8.81528e-01 -7.64017e-01
       H -3.73423e-01 -9.44242e-01  8.23116e-01
       L -6.85757e+00 -1.89991e+00 -4.69254e+00
       L -6.25615e+00 -5.57656e+00  2.16422e+00
6
# CELL(abcABC):  459.05226   459.05226   459.05226    90.00000    90.00000    90.00000  Step:          17  Bead:       0 x_centroid{angstrom}  cell{atomic_unit}
       C -3.88153e-01 -1.29515e-01  8.76301e-02
       O  8.34356e-01  2.67775e-01 -1.82848e-01
       H  5.78487e-01  9.10010e-01 -7.90834e-01
       H -3.54964e-01 -9.44654e-01  8.31215e-01
       L -6.84483e+00 -1.98492e+00 -4.73434e+00
       L -6.21587e+00 -5.38702e+00  2.29622e+00
6
# CELL(abcABC):  459.05226   459.05226   459.05226    90.00000    90.00000    90.00000  Step:          18  Bead:       0 x_centroid{angstrom}  cell{atomic_unit}
       C -3.92365e-01 -1.32397e-01  8.92687e-02
       O  8.30882e-01  2.67819e-01 -1.82629e-01
       H  6.65196e-01  9.43349e-01 -8.21708e-01
       H -3.36435e-01 -9.44469e-01  8.39036e-01
       L -6.75485e+00 -2.03272e+00 -4.67845e+00
       L -6.12237e+00 -5.13681e+00  2.33607e+00
6
# CELL(abcABC):  459.05226   459.05226   459.05226    90.00000    90.00000    90.00000  Step:          19  Bead:       0 x_centroid{angstrom}  cell{atomic_unit}
       C -3.96466e-01 -1.35040e-01  9.11608e-02
       O  8.27106e-01  2.67579e-01 -1.82513e-01
       H  7.53860e-01  9.78153e-01 -8.52235e-01
       H -3.16454e-01 -9.44092e-01  8.45185e-01
       L -6.55607e+00 -2.06121e+00 -4.63288e+00
       L -6.01889e+00 -4.86358e+00  2.29788e+00
6
# CELL(abcABC):  459.05226   459.05226   459.05226    90.00000    90.00000    90.00000  Step:          20  Bead:       0 x_centroid{angstrom}  cell{atomic_unit}
       C -4.00476e-01 -1.37482e-01  9.28103e-02
       O  8.23203e-01  2.67406e-01 -1.82336e-01
       H  8.41832e-01  1.00981e+00 -8.79671e-01
       H -2.94860e-01 -9.44075e-01  8.50098e-01
       L -6.32258e+00 -2.08107e+00 -4.51176e+00
       L -5.93411e+00 -4.53722e+00  2.27892e+00
6
# CELL(abcABC):  459.05226   459.05226   459.05226    90.00000    90.00000    90.00000  Step:          21  Bead:       0 x_centroid{angstrom}  cell{atomic_unit}
       C -4.04187e-01 -1.39675e-01  9.46790e-02
       O  8.19065e-01  2.67241e-01 -1.82575e-01
       H  9.28210e-01  1.03617e+00 -9.02325e-01
       H -2.71530e-01 -9.41872e-01  8.54220e-01
       L -6.03527e+00 -2.07440e+00 -4.36768e+00
       L -5.87818e+00 -4.20334e+00  2.21843e+00
6
# CELL(abcABC):  459.05226   459.05226   459.05226    90.00000    90.00000    90.00000  Step:          22  Bead:       0 x_centroid{angstrom}  cell{atomic_unit}
       C -4.07650e-01 -1.41770e-01  9.62839e-02
       O  8.14906e-01  2.67472e-01 -1.82977e-01
       H  1.01218e+00  1.05465e+00 -9.19265e-01
       H -2.48469e-01 -9.39229e-01  8.58367e-01
       L -5.73914e+00 -2.09774e+00 -4.20220e+00
       L -5.69082e+00 -3.83758e+00  2.15057e+00
6
# CELL(abcABC):  459.05226   459.05226   459.05226    90.00000    90.00000    90.00000  Step:          23  Bead:       0 x_centroid{angstrom}  cell{atomic_unit}
       C -4.10848e-01 -1.43833e-01  9.77573e-02
       O  8.10885e-01  2.68087e-01 -1.83708e-01
       H  1.09131e+00  1.06499e+00 -9.27476e-01
       H -2.25958e-01 -9.34974e-01  8.60584e-01
       L -5.39917e+00 -2.07949e+00 -4.00214e+00
       L -5.48893e+00 -3.44415e+00  2.04380e+00
6
# CELL(abcABC):  459.05226   459.05226   459.05226    90.00000    90.00000    90.00000  Step:          24  Bead:       0 x_centroid{angstrom}  cell{atomic_unit}
       C -4.13805e-01 -1.45533e-01  9.88381e-02
       O  8.07020e-01  2.68969e-01 -1.84668e-01
       H  1.16385e+00  1.06619e+00 -9.26466e-01
       H -2.02258e-01 -9.30183e-01  8.61850e-01
       L -4.97826e+00 -2.02072e+00 -3.74721e+00
       L -5.28339e+00 -3.01351e+00  1.93431e+00
6
# CELL(abcABC):  459.05226   459.05226   459.05226    90.00000    90.00000    90.00000  Step:          25  Bead:       0 x_centroid{angstrom}  cell{atomic_unit}
       C -4.16423e-01 -1.46717e-01  9.99369e-02
       O  8.03378e-01  2.70089e-01 -1.86143e-01
       H  1.22906e+00  1.05710e+00 -9.17121e-01
       H -1.78851e-01 -9.25073e-01  8.62745e-01
       L -4.54315e+00 -1.94503e+00 -3.47923e+00
       L -4.99278e+00 -2.53744e+00  1.79339e+00
6
# CELL(abcABC):  459.05226   459.05226   459.05226    90.00000    90.00000    90.00000  Step:          26  Bead:       0 x_centroid{angstrom}  cell{atomic_unit}
       C -4.18990e-01 -1.47650e-01  1.01096e-01
       O  8.00141e-01  2.71505e-01 -1.88027e-01
       H  1.28643e+00  1.03918e+00 -8.99439e-01
       H -1.54648e-01 -9.18847e-01  8.61043e-01
       L -4.12214e+00 -1.80319e+00 -3.14141e+00
       L -4.69885e+00 -2.04911e+00  1.67242e+00
6
# CELL(abcABC):  459.05226   459.05226   459.05226    90.00000    90.00000    90.00000  Step:          27  Bead:       0 x_centroid{angstrom}  cell{atomic_unit}
       C -4.21519e-01 -1.48173e-01  1.02258e-01
       O  7.97520e-01  2.73037e-01 -1.90334e-01
       H  1.33351e+00  1.01384e+00 -8.73913e-01
       H -1.30436e-01 -9.11938e-01  8.58173e-01
       L -3.60988e+00 -1.64694e+00 -2.78552e+00
       L -4.39532e+00 -1.55546e+00  1.54062e+00
6
# CELL(abcABC):  459.05226   459.05226   459.05226    90.00000    90.00000    90.00000  Step:          28  Bead:       0 x_centroid{angstrom}  cell{atomic_unit}
       C -4.23639e-01 -1.48545e-01  1.02904e-01
       O  7.95469e-01  2.75070e-01 -1.92657e-01
       H  1.36850e+00  9.79743e-01 -8.41874e-01
       H -1.08073e-01 -9.06058e-01  8.55101e-01
       L -3.04284e+00 -1.47110e+00 -2.32835e+00
       L -4.08681e+00 -1.05606e+00  1.44937e+00
6
# CELL(abcABC):  459.05226   459.05226   459.05226    90.00000    90.00000    90.00000  Step:          29  Bead:       0 x_centroid{angstrom}  cell{atomic_unit}
       C -4.25724e-01 -1.48917e-01  1.03333e-01
       O  7.94104e-01  2.77447e-01 -1.95302e-01
       H  1.39241e+00  9.38800e-01 -8.03633e-01
       H -8.59727e-02 -8.98773e-01  8.53572e-01
       L -2.44370e+00 -1.31278e+00 -1.86955e+00
       L -3.76354e+00 -5.69213e-01  1.31083e+00
6
# CELL(abcABC):  459.05226   459.05226   459.05226    90.00000    90.00000    90.00000  Step:          30  Bead:       0 x_centroid{angstrom}  cell{atomic_unit}
       C -4.27444e-01 -1.49308e-01  1.03470e-01
       O  7.93289e-01  2.80129e-01 -1.98041e-01
       H  1.40476e+00  8.92913e-01 -7.61592e-01
       H -6.54033e-02 -8.91173e-01  8.53173e-01
       L -1.83044e+00 -1.16298e+00 -1.37015e+00
       L -3.43164e+00 -1.80609e-02  1.18613e+00
6
# CELL(abcABC):  459.05226   459.05226   459.05226    90.00000    90.00000    90.00000  Step:          31  Bead:       0 x_centroid{angstrom}  cell{atomic_unit}
       C -4.28694e-01 -1.49750e-01  1.03694e-01
       O  7.92876e-01  2.82982e-01 -2.01044e-01
       H  1.40742e+00  8.44150e-01 -7.16581e-01
       H -4.71275e-02 -8.82865e-01  8.52959e-01
       L -1.22543e+00 -9.39175e-01 -8.65762e-01
       L -3.08581e+00  5.47848e-01  1.04286e+00
6
# CELL(abcABC):  459.05226   459.05226   459.05226    90.00000    90.00000    90.00000  Step:          32  Bead:       0 x_centroid{angstrom}  cell{atomic_unit}
       C -4.29658e-01 -1.49929e-01  1.03781e-01
       O  7.92844e-01  2.85640e-01 -2.04000e-01
       H  1.40349e+00  7.94634e-01 -6.71073e-01
       H -3.17921e-02 -8.73880e-01  8.53147e-01
       L -5.52983e-01 -6.30041e-01 -3.27662e-01
       L -2.67055e+00  1.10982e+00  8.67065e-01
6
# CELL(abcABC):  459.05226   459.05226   459.05226    90.00000    90.00000    90.00000  Step:          33  Bead:       0 x_centroid{angstrom}  cell{atomic_unit}
       C -4.30393e-01 -1.49921e-01  1.03598e-01
       O  7.92988e-01  2.87829e-01 -2.06419e-01
       H  1.39848e+00  7.50527e-01 -6.31477e-01
       H -2.08689e-02 -8.65119e-01  8.53877e-01
       L  5.19545e-02 -2.88105e-01  2.34351e-01
       L -2.27664e+00  1.69329e+00  7.46689e-01
6
# CELL(abcABC):  459.05226   459.05226   459.05226    90.00000    90.00000    90.00000  Step:          34  Bead:       0 x_centroid{angstrom}  cell{atomic_unit}
       C -4.30710e-01 -1.49921e-01  1.03407e-01
       O  7.92779e-01  2.89444e-01 -2.08241e-01
       H  1.39824e+00  7.15824e-01 -6.01374e-01
       H -1.40891e-02 -8.56550e-01  8.54737e-01
       L  6.32501e-01  1.77421e-02  7.99086e-01
       L -1.82045e+00  2.31301e+00  6.13892e-01
6
# CELL(abcABC):  459.05226   459.05226   459.05226    90.00000    90.00000    90.00000  Step:          35  Bead:       0 x_centroid{angstrom}  cell{atomic_unit}
       C -4.30611e-01 -1.49605e-01  1.02972e-01
       O  7.91697e-01  2.90006e-01 -2.09244e-01
       H  1.41145e+00  6.95365e-01 -5.82063e-01
       H -1.18830e-02 -8.49251e-01  8.56285e-01
       L  1.18804e+00  3.29541e-01  1.38567e+00
       L -1.29793e+00  2.87395e+00  4.68439e-01
6
# CELL(abcABC):  459.05226   459.05226   459.05226    90.00000    90.00000    90.00000  Step:          36  Bead:       0 x_centroid{angstrom}  cell{atomic_unit}
       C -4.29901e-01 -1.49017e-01  1.02499e-01
       O  7.89351e-01  2.89517e-01 -2.09307e-01
       H  1.43981e+00  6.89026e-01 -5.77503e-01
       H -1.20358e-02 -8.42597e-01  8.58152e-01
       L  1.70964e+00  6.80279e-01  1.94219e+00
       L -7.85906e-01  3.32501e+00  3.10798e-01
6
# CELL(abcABC):  459.05226   459.05226   459.05226    90.00000    90.00000    90.00000  Step:          37  Bead:       0 x_centroid{angstrom}  cell{atomic_unit}
       C -4.28906e-01 -1.48673e-01  1.01936e-01
       O  7.86317e-01  2.88512e-01 -2.08643e-01
       H  1.47993e+00  6.94322e-01 -5.84059e-01
       H -1.64396e-02 -8.36415e-01  8.60663e-01
       L  2.21160e+00  9.82200e-01  2.49993e+00
       L -2.09416e-01  3.71770e+00  1.63467e-01
6
# CELL(abcABC):  459.05226   459.05226   459.05226    90.00000    90.00000    90.00000  Step:          38  Bead:       0 x_centroid{angstrom}  cell{atomic_unit}
       C -4.27530e-01 -1.48295e-01  1.01455e-01
       O  7.82941e-01  2.87214e-01 -2.07613e-01
       H  1.52505e+00  7.06044e-01 -5.98596e-01
       H -2.49754e-02 -8.32377e-01  8.64337e-01
       L  2.71508e+00  1.26934e+00  3.04752e+00
       L  4.06055e-01  4.04655e+00  4.35433e-02
6
# CELL(abcABC):  459.05226   459.05226   459.05226    90.00000    90.00000    90.00000  Step:          39  Bead:       0 x_centroid{angstrom}  cell{atomic_unit}
       C -4.25839e-01 -1.48158e-01  1.00841e-01
       O  7.79675e-01  2.86163e-01 -2.06446e-01
       H  1.56817e+00  7.19082e-01 -6.14593e-01
       H -3.70011e-02 -8.30717e-01  8.68933e-01
       L  3.23016e+00  1.60519e+00  3.55045e+00
       L  9.76181e-01  4.36344e+00 -1.00858e-01
6
# CELL(abcABC):  459.05226   459.05226   459.05226    90.00000    90.00000    90.00000  Step:          40  Bead:       0 x_centroid{angstrom}  cell{atomic_unit}
       C -4.23839e-01 -1.47833e-01  1.00384e-01
       O  7.76892e-01  2.85109e-01 -2.05447e-01
       H  1.60355e+00  7.31458e-01 -6.31712e-01
       H -5.25786e-02 -8.30609e-01  8.75462e-01
       L  3.68541e+00  1.95273e+00  4.03441e+00
       L  1.54867e+00  4.70799e+00 -2.60879e-01
6
# CELL(abcABC):  459.05226   459.05226   459.05226    90.00000    90.00000    90.00000  Step:          41  Bead:       0 x_centroid{angstrom}  cell{atomic_unit}
       C -4.21813e-01 -1.47480e-01  1.00090e-01
       O  7.74846e-01  2.84217e-01 -2.04857e-01
       H  1.62841e+00  7.42024e-01 -6.46304e-01
       H -6.96876e-02 -8.31609e-01  8.84050e-01
       L  4.13683e+00  2.32434e+00  4.41314e+00
       L  2.14310e+00  5.03243e+00 -3.75845e-01
6
# CELL(abcABC):  459.05226   459.05226   459.05226    90.00000    90.00000    90.00000  Step:          42  Bead:       0 x_centroid{angstrom}  cell{atomic_unit}
       C -4.19713e-01 -1.46864e-01  9.97640e-02
       O  7.73621e-01  2.83497e-01 -2.04468e-01
       H  1.64157e+00  7.48162e-01 -6.57548e-01
       H -8.89732e-02 -8.34013e-01  8.92880e-01
       L  4.54625e+00  2.71668e+00  4.72599e+00
       L  2.75100e+00  5.30458e+00 -4.60079e-01
6
# CELL(abcABC):  459.05226   459.05226   459.05226    90.00000    90.00000    90.00000  Step:          43  Bead:       0 x_centroid{angstrom}  cell{atomic_unit}
       C -4.17279e-01 -1.46185e-01  9.94373e-02
       O  7.73187e-01  2.82922e-01 -2.04307e-01
       H  1.64107e+00  7.52411e-01 -6.66047e-01
       H -1.11174e-01 -8.37588e-01  9.02591e-01
       L  4.94278e+00  3.09653e+00  5.00565e+00
       L  3.41881e+00  5.58680e+00 -4.99510e-01
6
# CELL(abcABC):  459.05226   459.05226   459.05226    90.00000    90.00000    90.00000  Step:          44  Bead:       0 x_centroid{angstrom}  cell{atomic_unit}
       C -4.14658e-01 -1.45290e-01  9.91332e-02
       O  7.73559e-01  2.82528e-01 -2.04391e-01
       H  1.62704e+00  7.52253e-01 -6.71119e-01
       H -1.34812e-01 -8.42181e-01  9.12548e-01
       L  5.28525e+00  3.43402e+00  5.19785e+00
       L  4.08147e+00  5.87581e+00 -5.58018e-01
6
# CELL(abcABC):  459.05226   459.05226   459.05226    90.00000    90.00000    90.00000  Step:          45  Bead:       0 x_centroid{angstrom}  cell{atomic_unit}
       C -4.12294e-01 -1.44309e-01  9.90214e-02
       O  7.74911e-01  2.82464e-01 -2.04903e-01
       H  1.60105e+00  7.46287e-01 -6.71806e-01
       H -1.58981e-01 -8.47143e-01  9.22618e-01
       L  5.65203e+00  3.75238e+00  5.35926e+00
       L  4.65576e+00  6.04155e+00 -5.99868e-01
6
# CELL(abcABC):  459.05226   459.05226   459.05226    90.00000    90.00000    90.00000  Step:          46  Bead:       0 x_centroid{angstrom}  cell{atomic_unit}
       C -4.09803e-01 -1.43229e-01  9.90723e-02
       O  7.76935e-01  2.82524e-01 -2.05710e-01
       H  1.56412e+00  7.36559e-01 -6.69305e-01
       H -1.84304e-01 -8.51473e-01  9.32297e-01
       L  5.90164e+00  4.06186e+00  5.43998e+00
       L  5.20375e+00  6.14469e+00 -6.38099e-01
6
# CELL(abcABC):  459.05226   459.05226   459.05226    90.00000    90.00000    90.00000  Step:          47  Bead:       0 x_centroid{angstrom}  cell{atomic_unit}
       C -4.07524e-01 -1.41983e-01  9.89054e-02
       O  7.79851e-01  2.82579e-01 -2.06478e-01
       H  1.51755e+00  7.24039e-01 -6.64967e-01
       H -2.11596e-01 -8.54850e-01  9.42101e-01
       L  6.15655e+00  4.35094e+00  5.50798e+00
       L  5.75796e+00  6.20212e+00 -6.17320e-01
6
# CELL(abcABC):  459.05226   459.05226   459.05226    90.00000    90.00000    90.00000  Step:          48  Bead:       0 x_centroid{angstrom}  cell{atomic_unit}
       C -4.05068e-01 -1.40478e-01  9.84989e-02
       O  7.83119e-01  2.82366e-01 -2.07144e-01
       H  1.46438e+00  7.11003e-01 -6.57847e-01
       H -2.39949e-01 -8.56561e-01  9.50427e-01
       L  6.34916e+00  4.65090e+00  5.47301e+00
       L  6.24403e+00  6.24621e+00 -6.34576e-01
6
# CELL(abcABC):  459.05226   459.05226   459.05226    90.00000    90.00000    90.00000  Step:          49  Bead:       0 x_centroid{angstrom}  cell{atomic_unit}
       C -4.02927e-01 -1.38882e-01  9.79757e-02
       O  7.86520e-01  2.81887e-01 -2.07479e-01
       H  1.41177e+00  7.00379e-01 -6.53762e-01
       H -2.67133e-01 -8.57474e-01  9.57951e-01
       L  6.49493e+00  4.90263e+00  5.37617e+00
       L  6.63493e+00  6.21887e+00 -6.54342e-01
6
# CELL(abcABC):  459.05226   459.05226   459.05226    90.00000    90.00000    90.00000  Step:          50  Bead:       0 x_centroid{angstrom}  cell{atomic_unit}
       C -4.01096e-01 -1.37529e-01  9.71836e-02
       O  7.89584e-01  2.81004e-01 -2.07058e-01
       H  1.36702e+00  6.97710e-01 -6.58126e-01
       H -2.93027e-01 -8.56981e-01  9.65110e-01
       L  6.57413e+00  5.11532e+00  5.25353e+00
       L  6.93171e+00  6.14491e+00 -6.15222e-01
6
# CELL(abcABC):  459.05226   459.05226   459.05226    90.00000    90.00000    90.00000  Step:          51  Bead:       0 x_centroid{angstrom}  cell{atomic_unit}
       C -3.99740e-01 -1.36207e-01  9.64154e-02
       O  7.92261e-01  2.79425e-01 -2.05650e-01
       H  1.33310e+00  7.05833e-01 -6.75668e-01
       H -3.17886e-01 -8.55875e-01  9.69456e-01
       L  6.56784e+00  5.32814e+00  5.18296e+00
       L  7.14980e+00  6.04467e+00 -5.35498e-01
6
# CELL(abcABC):  459.05226   459.05226   459.05226    90.00000    90.00000    90.00000  Step:          52  Bead:       0 x_centroid{angstrom}  cell{atomic_unit}
       C -3.98398e-01 -1.34535e-01  9.52625e-02
       O  7.94184e-01  2.76662e-01 -2.02840e-01
       H  1.30883e+00  7.25922e-01 -7.08980e-01
       H -3.40127e-01 -8.51997e-01  9.71938e-01
       L  6.44459e+00  5.46246e+00  5.05760e+00
       L  7.28417e+00  5.88253e+00 -4.75077e-01
6
# CELL(abcABC):  459.05226   459.05226   459.05226    90.00000    90.00000    90.00000  Step:          53  Bead:       0 x_centroid{angstrom}  cell{atomic_unit}
       C -3.97112e-01 -1.32593e-01  9.38654e-02
       O  7.95505e-01  2.72822e-01 -1.98913e-01
       H  1.29266e+00  7.59234e-01 -7.55261e-01
       H -3.60134e-01 -8.47513e-01  9.72583e-01
       L  6.19832e+00  5.63256e+00  4.87394e+00
       L  7.30480e+00  5.73663e+00 -3.94075e-01
6
# CELL(abcABC):  459.05226   459.05226   459.05226    90.00000    90.00000    90.00000  Step:          54  Bead:       0 x_centroid{angstrom}  cell{atomic_unit}
       C -3.95972e-01 -1.30144e-01  9.19143e-02
       O  7.96713e-01  2.68154e-01 -1.93905e-01
       H  1.27685e+00  7.97694e-01 -8.09445e-01
       H -3.76870e-01 -8.41063e-01  9.70564e-01
       L  5.92397e+00  5.80047e+00  4.66891e+00
       L  7.20403e+00  5.56576e+00 -2.67673e-01
6
# CELL(abcABC):  459.05226   459.05226   459.05226    90.00000    90.00000    90.00000  Step:          55  Bead:       0 x_centroid{angstrom}  cell{atomic_unit}
       C -3.95034e-01 -1.27747e-01  8.98093e-02
       O  7.98161e-01  2.63354e-01 -1.88388e-01
       H  1.25711e+00  8.36856e-01 -8.67224e-01
       H -3.90982e-01 -8.32602e-01  9.65914e-01
       L  5.57320e+00  5.95860e+00  4.47135e+00
       L  6.98402e+00  5.41717e+00 -1.71666e-01
6
# CELL(abcABC):  459.05226   459.05226   459.05226    90.00000    90.00000    90.00000  Step:          56  Bead:       0 x_centroid{angstrom}  cell{atomic_unit}
       C -3.94363e-01 -1.25240e-01  8.70103e-02
       O  8.00188e-01  2.58484e-01 -1.82374e-01
       H  1.22909e+00  8.73334e-01 -9.23342e-01
       H -4.02784e-01 -8.21584e-01  9.60000e-01
       L  5.21573e+00  6.08882e+00  4.22671e+00
       L  6.70086e+00  5.18310e+00 -5.43660e-02
6
# CELL(abcABC):  459.05226   459.05226   459.05226    90.00000    90.00000    90.00000  Step:          57  Bead:       0 x_centroid{angstrom}  cell{atomic_unit}
       C -3.94055e-01 -1.22475e-01  8.39220e-02
       O  8.02860e-01  2.53676e-01 -1.76476e-01
       H  1.19242e+00  9.04605e-01 -9.73113e-01
       H -4.11805e-01 -8.09337e-01  9.53055e-01
       L  4.79023e+00  6.14212e+00  3.90347e+00
       L  6.37966e+00  4.86377e+00  7.35223e-02
6
# CELL(abcABC):  459.05226   459.05226   459.05226    90.00000    90.00000    90.00000  Step:          58  Bead:       0 x_centroid{angstrom}  cell{atomic_unit}
       C -3.93960e-01 -1.19517e-01  8.02136e-02
       O  8.06076e-01  2.49052e-01 -1.70712e-01
       H  1.14680e+00  9.28304e-01 -1.01329e+00
       H -4.17905e-01 -7.94649e-01  9.46041e-01
       L  4.31731e+00  6.10072e+00  3.52506e+00
       L  6.01213e+00  4.44777e+00  2.45114e-01
6
# CELL(abcABC):  459.05226   459.05226   459.05226    90.00000    90.00000    90.00000  Step:          59  Bead:       0 x_centroid{angstrom}  cell{atomic_unit}
       C -3.94139e-01 -1.16187e-01  7.61226e-02
       O  8.09768e-01  2.44754e-01 -1.65223e-01
       H  1.09471e+00  9.42411e-01 -1.04417e+00
       H -4.21824e-01 -7.79924e-01  9.38674e-01
       L  3.86527e+00  5.99475e+00  3.09474e+00
       L  5.61711e+00  4.03653e+00  4.21412e-01
6
# CELL(abcABC):  459.05226   459.05226   459.05226    90.00000    90.00000    90.00000  Step:          60  Bead:       0 x_centroid{angstrom}  cell{atomic_unit}
       C -3.94246e-01 -1.12607e-01  7.16893e-02
       O  8.13552e-01  2.40935e-01 -1.60136e-01
       H  1.03824e+00  9.47623e-01 -1.06525e+00
       H -4.23636e-01 -7.66858e-01  9.32027e-01
       L  3.37118e+00  5.85181e+00  2.56381e+00
       L  5.17595e+00  3.58444e+00  5.96240e-01
6
# CELL(abcABC):  459.05226   459.05226   459.05226    90.00000    90.00000    90.00000  Step:          61  Bead:       0 x_centroid{angstrom}  cell{atomic_unit}
       C -3.94744e-01 -1.08778e-01  6.66793e-02
       O  8.17818e-01  2.37558e-01 -1.55444e-01
       H  9.77553e-01  9.43703e-01 -1.07433e+00
       H -4.24182e-01 -7.54578e-01  9.26552e-01
       L  2.81845e+00  5.62612e+00  2.02013e+00
       L  4.74597e+00  3.11678e+00  7.13584e-01
6
# CELL(abcABC):  459.05226   459.05226   459.05226    90.00000    90.00000    90.00000  Step:          62  Bead:       0 x_centroid{angstrom}  cell{atomic_unit}
       C -3.95383e-01 -1.04910e-01  6.12550e-02
       O  8.22264e-01  2.34680e-01 -1.51142e-01
       H  9.14826e-01  9.32222e-01 -1.07280e+00
       H -4.23857e-01 -7.43071e-01  9.21593e-01
       L  2.25774e+00  5.34756e+00  1.47358e+00
       L  4.26052e+00  2.59463e+00  8.68078e-01
6
# CELL(abcABC):  459.05226   459.05226   459.05226    90.00000    90.00000    90.00000  Step:          63  Bead:       0 x_centroid{angstrom}  cell{atomic_unit}
       C -3.96381e-01 -1.00768e-01  5.56204e-02
       O  8.26929e-01  2.32250e-01 -1.47541e-01
       H  8.51370e-01  9.11491e-01 -1.05939e+00
       H -4.21974e-01 -7.32645e-01  9.18424e-01
       L  1.68154e+00  5.01309e+00  8.80436e-01
       L  3.76668e+00  2.04068e+00  9.81930e-01
6
# CELL(abcABC):  459.05226   459.05226   459.05226    90.00000    90.00000    90.00000  Step:          64  Bead:       0 x_centroid{angstrom}  cell{atomic_unit}
       C -3.97328e-01 -9.63624e-02  4.95128e-02
       O  8.31514e-01  2.30198e-01 -1.44383e-01
       H  7.87968e-01  8.83028e-01 -1.03512e+00
       H -4.19441e-01 -7.23552e-01  9.17064e-01
       L  1.08149e+00  4.62191e+00  2.94806e-01
       L  3.23370e+00  1.43888e+00  1.09155e+00
6
# CELL(abcABC):  459.05226   459.05226   459.05226    90.00000    90.00000    90.00000  Step:          65  Bead:       0 x_centroid{angstrom}  cell{atomic_unit}
       C -3.98411e-01 -9.16256e-02  4.34567e-02
       O  8.36057e-01  2.28394e-01 -1.41964e-01
       H  7.25421e-01  8.47760e-01 -1.00118e+00
       H -4.15486e-01 -7.15490e-01  9.17133e-01
       L  4.85126e-01  4.12459e+00 -2.96126e-01
       L  2.67869e+00  8.21174e-01  1.22457e+00
6
# CELL(abcABC):  459.05226   459.05226   459.05226    90.00000    90.00000    90.00000  Step:          66  Bead:       0 x_centroid{angstrom}  cell{atomic_unit}
       C -3.99725e-01 -8.71621e-02  3.73042e-02