6
# CELL(abcABC):  459.05226   459.05226   459.05226    90.00000    90.00000    90.00000  Step:           0  Bead:       0 x_centroid{angstrom}  cell{atomic_unit}
       C -3.39887e-01 -1.13437e-01  8.06659e-02
       O  8.43483e-01  2.62672e-01 -1.81512e-01
       H -7.35799e-02  8.16467e-01 -6.61432e-01
       H -4.30016e-01 -9.65701e-01  7.62278e-01
       L  0.00000e+00  0.00000e+00  0.00000e+00
       L  0.00000e+00  0.00000e+00  0.00000e+00
6
# CELL(abcABC):  459.05226   459.05226   459.05226    90.00000    90.00000    90.00000  Step:           1  Bead:       0 x_centroid{angstrom}  cell{atomic_unit}
       C -3.37690e-01 -1.13334e-01  8.16700e-02
       O  8.41747e-01  2.62227e-01 -1.82952e-01
       H -7.88325e-02  8.28962e-01 -6.54998e-01
       H -4.23699e-01 -9.71945e-01  7.66852e-01
       L  3.28256e-01 -4.31531e-01  3.79779e-02
       L  2.50637e-01 -3.63788e-01 -2.68917e-01
6
# CELL(abcABC):  459.05226   459.05226   459.05226    90.00000    90.00000    90.00000  Step:           2  Bead:       0 x_centroid{angstrom}  cell{atomic_unit}
       C -3.35347e-01 -1.13321e-01  8.23553e-02
       O  8.39934e-01  2.61840e-01 -1.84278e-01
       H -8.47286e-02  8.40741e-01 -6.47655e-01
       H -4.17250e-01 -9.77305e-01  7.72517e-01
       L  6.28673e-01 -8.26076e-01  7.16505e-02
       L  5.13674e-01 -7.54484e-01 -5.20139e-01
6
# CELL(abcABC):  459.05226   459.05226   459.05226    90.00000    90.00000    90.00000  Step:           3  Bead:       0 x_centroid{angstrom}  cell{atomic_unit}
       C -3.33197e-01 -1.13205e-01  8.31800e-02
       O  8.38142e-01  2.61323e-01 -1.85784e-01
       H -9.02940e-02  8.52583e-01 -6.39886e-01
       H -4.09161e-01 -9.81888e-01  7.78909e-01
       L  9.22021e-01 -1.23814e+00  1.54917e-01
       L  7.78532e-01 -1.12606e+00 -7.65354e-01
6
# CELL(abcABC):  459.05226   459.05226   459.05226    90.00000    90.00000    90.00000  Step:           4  Bead:       0 x_centroid{angstrom}  cell{atomic_unit}
       C -3.31179e-01 -1.13188e-01  8.40719e-02
       O  8.36284e-01  2.60855e-01 -1.87278e-01
       H -9.41388e-02  8.64090e-01 -6.31277e-01
       H -4.00158e-01 -9.85741e-01  7.83459e-01
       L  1.19305e+00 -1.62500e+00  2.42135e-01
       L  1.04576e+00 -1.52329e+00 -9.97513e-01
6
# CELL(abcABC):  459.05226   459.05226   459.05226    90.00000    90.00000    90.00000  Step:           5  Bead:       0 x_centroid{angstrom}  cell{atomic_unit}
       C -3.28983e-01 -1.13230e-01  8.48550e-02
       O  8.34339e-01  2.60445e-01 -1.88664e-01
       H -9.84722e-02  8.74309e-01 -6.21290e-01
       H -3.91393e-01 -9.88535e-01  7.86225e-01
       L  1.44298e+00 -1.97205e+00  3.06635e-01
       L  1.27552e+00 -1.94823e+00 -1.19621e+00
6
# CELL(abcABC):  459.05226   459.05226   459.05226    90.00000    90.00000    90.00000  Step:           6  Bead:       0 x_centroid{angstrom}  cell{atomic_unit}
       C -3.26651e-01 -1.13207e-01  8.58184e-02
       O  8.32247e-01  2.60006e-01 -1.90227e-01
       H -1.02133e-01  8.83290e-01 -6.10072e-01
       H -3.82526e-01 -9.90382e-01  7.88410e-01
       L  1.69791e+00 -2.37580e+00  3.30763e-01
       L  1.43336e+00 -2.34349e+00 -1.35278e+00
6
# CELL(abcABC):  459.05226   459.05226   459.05226    90.00000    90.00000    90.00000  Step:           7  Bead:       0 x_centroid{angstrom}  cell{atomic_unit}
       C -3.24705e-01 -1.13655e-01  8.64370e-02
       O  8.30587e-01  2.59998e-01 -1.91498e-01
       H -1.07035e-01  8.90566e-01 -5.97540e-01
       H -3.74685e-01 -9.91790e-01  7.88809e-01
       L  1.94868e+00 -2.72492e+00  3.24614e-01
       L  1.57650e+00 -2.74139e+00 -1.59187e+00
6
# CELL(abcABC):  459.05226   459.05226   459.05226    90.00000    90.00000    90.00000  Step:           8  Bead:       0 x_centroid{angstrom}  cell{atomic_unit}
       C -3.22865e-01 -1.13928e-01  8.70485e-02
       O  8.29139e-01  2.59779e-01 -1.92727e-01
       H -1.12453e-01  8.97300e-01 -5.83887e-01
       H -3.68391e-01 -9.91481e-01  7.87446e-01
       L  2.19096e+00 -2.99901e+00  3.48262e-01
       L  1.68197e+00 -3.04907e+00 -1.75223e+00
6
# CELL(abcABC):  459.05226   459.05226   459.05226    90.00000    90.00000    90.00000  Step:           9  Bead:       0 x_centroid{angstrom}  cell{atomic_unit}
       C -3.21077e-01 -1.14377e-01  8.79356e-02
       O  8.27885e-01  2.59730e-01 -1.94092e-01
       H -1.18196e-01  9.02660e-01 -5.69447e-01
       H -3.64233e-01 -9.90430e-01  7.84225e-01
       L  2.42200e+00 -3.22076e+00  3.30425e-01
       L  1.76452e+00 -3.36194e+00 -1.93570e+00
6
# CELL(abcABC):  459.05226   459.05226   459.05226    90.00000    90.00000    90.00000  Step:          10  Bead:       0 x_centroid{angstrom}  cell{atomic_unit}
       C -3.19685e-01 -1.14765e-01  8.90188e-02
       O  8.26984e-01  2.59664e-01 -1.95556e-01
       H -1.24418e-01  9.06441e-01 -5.54373e-01
       H -3.60427e-01 -9.88274e-01  7.79579e-01
       L  2.64890e+00 -3.43114e+00  3.29817e-01
       L  1.79867e+00 -3.61582e+00 -2.12242e+00
6
# CELL(abcABC):  459.05226   459.05226   459.05226    90.00000    90.00000    90.00000  Step:          11  Bead:       0 x_centroid{angstrom}  cell{atomic_unit}
       C -3.18679e-01 -1.15109e-01  9.01749e-02
       O  8.26459e-01  2.59612e-01 -1.97079e-01
       H -1.32234e-01  9.08015e-01 -5.38267e-01
       H -3.56395e-01 -9.84664e-01  7.73998e-01
       L  2.82180e+00 -3.66848e+00  2.96096e-01
       L  1.86240e+00 -3.84947e+00 -2.32448e+00
6
# CELL(abcABC):  459.05226   459.05226   459.05226    90.00000    90.00000    90.00000  Step:          12  Bead:       0 x_centroid{angstrom}  cell{atomic_unit}
       C -3.17772e-01 -1.15686e-01  9.15506e-02
       O  8.26113e-01  2.59775e-01 -1.98757e-01
       H -1.43070e-01  9.08550e-01 -5.21310e-01
       H -3.51051e-01 -9.80700e-01  7.67390e-01
       L  3.01765e+00 -3.89918e+00  2.49874e-01
       L  1.98968e+00 -4.00724e+00 -2.47868e+00
6
# CELL(abcABC):  459.05226   459.05226   459.05226    90.00000    90.00000    90.00000  Step:          13  Bead:       0 x_centroid{angstrom}  cell{atomic_unit}
       C -3.16695e-01 -1.15975e-01  9.29880e-02
       O  8.25883e-01  2.59812e-01 -2.00452e-01
       H -1.56280e-01  9.07711e-01 -5.04412e-01
       H -3.47181e-01 -9.76836e-01  7.60376e-01
       L  3.20429e+00 -4.08354e+00  2.50466e-01
       L  2.09039e+00 -4.13865e+00 -2.65744e+00
6
# CELL(abcABC):  459.05226   459.05226   459.05226    90.00000    90.00000    90.00000  Step:          14  Bead:       0 x_centroid{angstrom}  cell{atomic_unit}
       C -3.15898e-01 -1.16169e-01  9.45894e-02
       O  8.26231e-01  2.59868e-01 -2.02320e-01
       H -1.73685e-01  9.07014e-01 -4.86408e-01
       H -3.44941e-01 -9.74588e-01  7.53022e-01
       L  3.40831e+00 -4.22689e+00  2.81406e-01
       L  2.16139e+00 -4.22565e+00 -2.85065e+00
6
# CELL(abcABC):  459.05226   459.05226   459.05226    90.00000    90.00000    90.00000  Step:          15  Bead:       0 x_centroid{angstrom}  cell{atomic_unit}
       C -3.15096e-01 -1.16217e-01  9.62082e-02
       O  8.26951e-01  2.59890e-01 -2.04299e-01
       H -1.95350e-01  9.05553e-01 -4.65930e-01
       H -3.44413e-01 -9.72792e-01  7.44717e-01
       L  3.61347e+00 -4.32359e+00  3.70821e-01
       L  2.21981e+00 -4.34833e+00 -3.02464e+00
6
# CELL(abcABC):  459.05226   459.05226   459.05226    90.00000    90.00000    90.00000  Step:          16  Bead:       0 x_centroid{angstrom}  cell{atomic_unit}
       C -3.14352e-01 -1.15890e-01  9.78665e-02
       O  8.28362e-01  2.59692e-01 -2.06495e-01
       H -2.24881e-01  9.03034e-01 -4.44029e-01
       H -3.46202e-01 -9.70955e-01  7.37951e-01
       L  3.74708e+00 -4.35712e+00  4.35179e-01
       L  2.18770e+00 -4.44612e+00 -3.15822e+00
6
# CELL(abcABC):  459.05226   459.05226   459.05226    90.00000    90.00000    90.00000  Step:          17  Bead:       0 x_centroid{angstrom}  cell{atomic_unit}
       C -3.13578e-01 -1.15211e-01  9.90712e-02
       O  8.30407e-01  2.59252e-01 -2.08387e-01
       H -2.63335e-01  9.02056e-01 -4.22010e-01
       H -3.49442e-01 -9.71105e-01  7.31631e-01
       L  3.87636e+00 -4.33799e+00  4.61712e-01
       L  2.08667e+00 -4.44025e+00 -3.23216e+00
6
# CELL(abcABC):  459.05226   459.05226   459.05226    90.00000    90.00000    90.00000  Step:          18  Bead:       0 x_centroid{angstrom}  cell{atomic_unit}
       C -3.12129e-01 -1.14033e-01  1.00106e-01
       O  8.32640e-01  2.58597e-01 -2.10195e-01
       H -3.11352e-01  9.00634e-01 -4.00245e-01
       H -3.54094e-01 -9.73383e-01  7.26269e-01
       L  3.98722e+00 -4.25566e+00  4.65403e-01
       L  1.90766e+00 -4.39306e+00 -3.27831e+00
6
# CELL(abcABC):  459.05226   459.05226   459.05226    90.00000    90.00000    90.00000  Step:          19  Bead:       0 x_centroid{angstrom}  cell{atomic_unit}
       C -3.10165e-01 -1.12197e-01  1.00649e-01
       O  8.35434e-01  2.57575e-01 -2.11772e-01
       H -3.71918e-01  8.99294e-01 -3.77103e-01
       H -3.61216e-01 -9.77793e-01  7.21672e-01
       L  4.05249e+00 -4.18628e+00  4.63051e-01
       L  1.70824e+00 -4.30811e+00 -3.25748e+00
6
# CELL(abcABC):  459.05226   459.05226   459.05226    90.00000    90.00000    90.00000  Step:          20  Bead:       0 x_centroid{angstrom}  cell{atomic_unit}
       C -3.07457e-01 -1.09637e-01  1.00758e-01
       O  8.38599e-01  2.56061e-01 -2.13156e-01
       H -4.44521e-01  8.97416e-01 -3.53671e-01
       H -3.71044e-01 -9.82520e-01  7.18899e-01
       L  4.12138e+00 -4.05781e+00  4.33571e-01
       L  1.48378e+00 -4.20008e+00 -3.20219e+00
6
# CELL(abcABC):  459.05226   459.05226   459.05226    90.00000    90.00000    90.00000  Step:          21  Bead:       0 x_centroid{angstrom}  cell{atomic_unit}
       C -3.03725e-01 -1.05990e-01  1.00309e-01
       O  8.42006e-01  2.53970e-01 -2.14267e-01
       H -5.30117e-01  8.92992e-01 -3.28296e-01
       H -3.83881e-01 -9.88526e-01  7.16475e-01
       L  4.17044e+00 -3.87216e+00  3.95335e-01
       L  1.23145e+00 -4.07139e+00 -3.12241e+00
6
# CELL(abcABC):  459.05226   459.05226   459.05226    90.00000    90.00000    90.00000  Step:          22  Bead:       0 x_centroid{angstrom}  cell{atomic_unit}
       C -2.98912e-01 -1.01247e-01  9.95064e-02
       O  8.45555e-01  2.51269e-01 -2.15216e-01
       H -6.28003e-01  8.85777e-01 -3.00086e-01
       H -3.99547e-01 -9.95193e-01  7.12871e-01
       L  4.15793e+00 -3.62007e+00  3.73996e-01
       L  1.00458e+00 -3.88393e+00 -3.05536e+00
6
# CELL(abcABC):  459.05226   459.05226   459.05226    90.00000    90.00000    90.00000  Step:          23  Bead:       0 x_centroid{angstrom}  cell{atomic_unit}
       C -2.92887e-01 -9.56657e-02  9.82816e-02
       O  8.49049e-01  2.48090e-01 -2.16003e-01
       H -7.37185e-01  8.74758e-01 -2.69183e-01
       H -4.17479e-01 -1.00046e+00  7.09021e-01
       L  4.12974e+00 -3.36489e+00  3.42147e-01
       L  7.74801e-01 -3.68184e+00 -2.94428e+00
6
# CELL(abcABC):  459.05226   459.05226   459.05226    90.00000    90.00000    90.00000  Step:          24  Bead:       0 x_centroid{angstrom}  cell{atomic_unit}
       C -2.86131e-01 -8.91160e-02  9.64996e-02
       O  8.52552e-01  2.44488e-01 -2.16526e-01
       H -8.53074e-01  8.58205e-01 -2.34623e-01
       H -4.37590e-01 -1.00507e+00  7.03928e-01
       L  4.13090e+00 -3.06351e+00  3.13887e-01
       L  5.66684e-01 -3.45391e+00 -2.81219e+00
6
# CELL(abcABC):  459.05226   459.05226   459.05226    90.00000    90.00000    90.00000  Step:          25  Bead:       0 x_centroid{angstrom}  cell{atomic_unit}
       C -2.78762e-01 -8.16006e-02  9.46278e-02
       O  8.55934e-01  2.40510e-01 -2.17072e-01
       H -9.72529e-01  8.34950e-01 -1.97437e-01
       H -4.59487e-01 -1.00856e+00  6.97655e-01
       L  4.08956e+00 -2.75184e+00  2.92559e-01
       L  3.62911e-01 -3.15408e+00 -2.65990e+00
6
# CELL(abcABC):  459.05226   459.05226   459.05226    90.00000    90.00000    90.00000  Step:          26  Bead:       0 x_centroid{angstrom}  cell{atomic_unit}
       C -2.70718e-01 -7.31998e-02  9.25943e-02
       O  8.58802e-01  2.36193e-01 -2.17599e-01
       H -1.09130e+00  8.03082e-01 -1.57603e-01
       H -4.81907e-01 -1.00860e+00  6.90327e-01
       L  3.98261e+00 -2.43249e+00  2.61086e-01
       L  1.05263e-01 -2.86143e+00 -2.47753e+00
6
# CELL(abcABC):  459.05226   459.05226   459.05226    90.00000    90.00000    90.00000  Step:          27  Bead:       0 x_centroid{angstrom}  cell{atomic_unit}
       C -2.62675e-01 -6.44078e-02  9.03456e-02
       O  8.61508e-01  2.31809e-01 -2.17922e-01
       H -1.20748e+00  7.63898e-01 -1.15408e-01
       H -5.04273e-01 -1.00497e+00  6.79980e-01
       L  3.86339e+00 -2.03116e+00  2.29367e-01
       L -2.26071e-01 -2.57853e+00 -2.29003e+00
6
# CELL(abcABC):  459.05226   459.05226   459.05226    90.00000    90.00000    90.00000  Step:          28  Bead:       0 x_centroid{angstrom}  cell{atomic_unit}
       C -2.54833e-01 -5.50102e-02  8.81226e-02
       O  8.63907e-01  2.27162e-01 -2.18136e-01
       H -1.31650e+00  7.18718e-01 -7.14230e-02
       H -5.26539e-01 -9.98396e-01  6.65763e-01
       L  3.70803e+00 -1.67014e+00  1.91092e-01
       L -5.25954e-01 -2.23164e+00 -2.05278e+00
6
# CELL(abcABC):  459.05226   459.05226   459.05226    90.00000    90.00000    90.00000  Step:          29  Bead:       0 x_centroid{angstrom}  cell{atomic_unit}
       C -2.47221e-01 -4.54097e-02  8.60707e-02
       O  8.65772e-01  2.22519e-01 -2.18248e-01
       H -1.41570e+00  6.68420e-01 -2.80912e-02
       H -5.47356e-01 -9.89207e-01  6.48563e-01
       L  3.50726e+00 -1.25927e+00  1.53558e-01
       L -8.47102e-01 -1.87121e+00 -1.83689e+00
6
# CELL(abcABC):  459.05226   459.05226   459.05226    90.00000    90.00000    90.00000  Step:          30  Bead:       0 x_centroid{angstrom}  cell{atomic_unit}
       C -2.39943e-01 -3.57680e-02  8.40761e-02
       O  8.67073e-01  2.17905e-01 -2.18260e-01
       H -1.50376e+00  6.13980e-01  1.50376e-02
       H -5.66377e-01 -9.76887e-01  6.29290e-01
       L  3.26296e+00 -8.20006e-01  1.48839e-01
       L -1.15597e+00 -1.45500e+00 -1.62992e+00
6
# CELL(abcABC):  459.05226   459.05226   459.05226    90.00000    90.00000    90.00000  Step:          31  Bead:       0 x_centroid{angstrom}  cell{atomic_unit}
       C -2.33743e-01 -2.63890e-02  8.21561e-02
       O  8.68312e-01  2.13460e-01 -2.18186e-01
       H -1.58044e+00  5.58021e-01  5.74435e-02
       H -5.82926e-01 -9.62615e-01  6.08485e-01
       L  2.94961e+00 -3.44878e-01  1.05844e-01
       L -1.42257e+00 -1.06598e+00 -1.39597e+00
6
# CELL(abcABC):  459.05226   459.05226   459.05226    90.00000    90.00000    90.00000  Step:          32  Bead:       0 x_centroid{angstrom}  cell{atomic_unit}
       C -2.28392e-01 -1.73573e-02  8.07044e-02
       O  8.69198e-01  2.09266e-01 -2.18178e-01
       H -1.64459e+00  4.99783e-01  9.71549e-02
       H -5.96316e-01 -9.45889e-01  5.85805e-01
       L  2.61730e+00  9.51552e-02  1.15288e-01
       L -1.63883e+00 -6.29155e-01 -1.15453e+00
6
# CELL(abcABC):  459.05226   459.05226   459.05226    90.00000    90.00000    90.00000  Step:          33  Bead:       0 x_centroid{angstrom}  cell{atomic_unit}
       C -2.23903e-01 -8.60389e-03  7.97377e-02
       O  8.69862e-01  2.05179e-01 -2.18276e-01
       H -1.69675e+00  4.43948e-01  1.33617e-01
       H -6.07909e-01 -9.30005e-01  5.62260e-01
       L  2.30190e+00  6.22407e-01  1.47829e-01
       L -1.82463e+00 -2.16355e-01 -9.02784e-01
6
# CELL(abcABC):  459.05226   459.05226   459.05226    90.00000    90.00000    90.00000  Step:          34  Bead:       0 x_centroid{angstrom}  cell{atomic_unit}
       C -2.20665e-01 -7.04667e-04  7.95194e-02
       O  8.70495e-01  2.01537e-01 -2.18751e-01
       H -1.73729e+00  3.90831e-01  1.67203e-01
       H -6.15778e-01 -9.13702e-01  5.38659e-01
       L  2.00487e+00  1.13875e+00  2.01860e-01
       L -1.94311e+00  1.84145e-01 -6.75283e-01
6
# CELL(abcABC):  459.05226   459.05226   459.05226    90.00000    90.00000    90.00000  Step:          35  Bead:       0 x_centroid{angstrom}  cell{atomic_unit}
       C -2.18600e-01  6.28814e-03  8.01915e-02
       O  8.71048e-01  1.98228e-01 -2.19647e-01
       H -1.76734e+00  3.42512e-01  1.96800e-01
       H -6.18845e-01 -8.96697e-01  5.15121e-01
       L  1.68879e+00  1.72424e+00  2.86552e-01
       L -2.10210e+00  5.43673e-01 -4.71514e-01
6
# CELL(abcABC):  459.05226   459.05226   459.05226    90.00000    90.00000    90.00000  Step:          36  Bead:       0 x_centroid{angstrom}  cell{atomic_unit}
       C -2.18130e-01  1.24503e-02  8.11739e-02
       O  8.72180e-01  1.95418e-01 -2.20662e-01
       H -1.78940e+00  2.99039e-01  2.23689e-01
       H -6.20071e-01 -8.82581e-01  4.92487e-01
       L  1.36300e+00  2.27433e+00  3.73445e-01
       L -2.30212e+00  9.67143e-01 -2.83747e-01
6
# CELL(abcABC):  459.05226   459.05226   459.05226    90.00000    90.00000    90.00000  Step:          37  Bead:       0 x_centroid{angstrom}  cell{atomic_unit}
       C -2.19132e-01  1.78683e-02  8.24638e-02
       O  8.73551e-01  1.93087e-01 -2.21768e-01
       H -1.80234e+00  2.61336e-01  2.46673e-01
       H -6.16628e-01 -8.72913e-01  4.71478e-01
       L  9.84435e-01  2.79809e+00  5.14218e-01
       L -2.49062e+00  1.30743e+00 -4.35228e-02
6
# CELL(abcABC):  459.05226   459.05226   459.05226    90.00000    90.00000    90.00000  Step:          38  Bead:       0 x_centroid{angstrom}  cell{atomic_unit}
       C -2.21286e-01  2.26043e-02  8.38779e-02
       O  8.74842e-01  1.91189e-01 -2.22944e-01
       H -1.80592e+00  2.29960e-01  2.66947e-01
       H -6.07533e-01 -8.68286e-01  4.52811e-01
       L  5.32084e-01  3.28978e+00  6.50266e-01
       L -2.67518e+00  1.64260e+00  2.04202e-01
6
# CELL(abcABC):  459.05226   459.05226   459.05226    90.00000    90.00000    90.00000  Step:          39  Bead:       0 x_centroid{angstrom}  cell{atomic_unit}
       C -2.24496e-01  2.66792e-02  8.57571e-02
       O  8.76301e-01  1.89793e-01 -2.24362e-01
       H -1.80209e+00  2.04680e-01  2.82853e-01
       H -5.95923e-01 -8.69813e-01  4.36856e-01
       L  3.83180e-02  3.76201e+00  7.62885e-01
       L -2.83492e+00  1.91678e+00  4.10220e-01
6
# CELL(abcABC):  459.05226   459.05226   459.05226    90.00000    90.00000    90.00000  Step:          40  Bead:       0 x_centroid{angstrom}  cell{atomic_unit}
       C -2.28357e-01  2.99402e-02  8.77634e-02
       O  8.77468e-01  1.88863e-01 -2.25735e-01
       H -1.78933e+00  1.87149e-01  2.95565e-01
       H -5.80818e-01 -8.76769e-01  4.21889e-01
       L -4.44912e-01  4.23124e+00  8.84411e-01
       L -3.04761e+00  2.16325e+00  5.47665e-01
6
# CELL(abcABC):  459.05226   459.05226   459.05226    90.00000    90.00000    90.00000  Step:          41  Bead:       0 x_centroid{angstrom}  cell{atomic_unit}
       C -2.33240e-01  3.24252e-02  8.98482e-02
       O  8.78716e-01  1.88466e-01 -2.27076e-01
       H -1.76849e+00  1.77480e-01  3.04665e-01
       H -5.62917e-01 -8.90794e-01  4.09143e-01
       L -9.29390e-01  4.67593e+00  9.37264e-01
       L -3.24413e+00  2.41202e+00  6.48816e-01
6
# CELL(abcABC):  459.05226   459.05226   459.05226    90.00000    90.00000    90.00000  Step:          42  Bead:       0 x_centroid{angstrom}  cell{atomic_unit}
       C -2.39120e-01  3.39123e-02  9.18678e-02
       O  8.80085e-01  1.88751e-01 -2.28398e-01
       H -1.73925e+00  1.74239e-01  3.11217e-01
       H -5.43448e-01 -9.10147e-01  3.99473e-01
       L -1.41082e+00  5.11487e+00  9.74691e-01
       L -3.42448e+00  2.63454e+00  6.75195e-01
6
# CELL(abcABC):  459.05226   459.05226   459.05226    90.00000    90.00000    90.00000  Step:          43  Bead:       0 x_centroid{angstrom}  cell{atomic_unit}
       C -2.45730e-01  3.45985e-02  9.40186e-02
       O  8.81420e-01  1.89454e-01 -2.29847e-01
       H -1.70352e+00  1.78547e-01  3.14422e-01
       H -5.21285e-01 -9.34107e-01  3.93621e-01
       L -1.87709e+00  5.48212e+00  9.49147e-01
       L -3.53653e+00  2.83427e+00  7.40242e-01
6
# CELL(abcABC):  459.05226   459.05226   459.05226    90.00000    90.00000    90.00000  Step:          44  Bead:       0 x_centroid{angstrom}  cell{atomic_unit}
       C -2.53161e-01  3.42916e-02  9.65940e-02
       O  8.82666e-01  1.90705e-01 -2.31425e-01
       H -1.65849e+00  1.91310e-01  3.12892e-01
       H -4.97289e-01 -9.63330e-01  3.89489e-01
       L -2.35483e+00  5.77071e+00  9.41248e-01
       L -3.55396e+00  3.02043e+00  8.01645e-01
6
# CELL(abcABC):  459.05226   459.05226   459.05226    90.00000    90.00000    90.00000  Step:          45  Bead:       0 x_centroid{angstrom}  cell{atomic_unit}
       C -2.61014e-01  3.29303e-02  9.93217e-02
       O  8.83493e-01  1.92453e-01 -2.32900e-01
       H -1.60384e+00  2.11722e-01  3.07776e-01
       H -4.71251e-01 -9.95462e-01  3.85483e-01
       L -2.80407e+00  5.95030e+00  9.56523e-01
       L -3.55058e+00  3.20944e+00  8.52220e-01
6
# CELL(abcABC):  459.05226   459.05226   459.05226    90.00000    90.00000    90.00000  Step:          46  Bead:       0 x_centroid{angstrom}  cell{atomic_unit}
       C -2.69056e-01  3.09378e-02  1.02138e-01
       O  8.83729e-01  1.94449e-01 -2.34250e-01
       H -1.53979e+00  2.38193e-01  2.99742e-01
       H -4.43025e-01 -1.03003e+00  3.81375e-01
       L -3.20923e+00  6.03185e+00  9.34275e-01
       L -3.50604e+00  3.41125e+00  8.95456e-01
6
# CELL(abcABC):  459.05226   459.05226   459.05226    90.00000    90.00000    90.00000  Step:          47  Bead:       0 x_centroid{angstrom}  cell{atomic_unit}
       C -2.77147e-01  2.80015e-02  1.04978e-01
       O  8.83325e-01  1.96667e-01 -2.35427e-01
       H -1.46548e+00  2.72192e-01  2.87824e-01
       H -4.14289e-01 -1.06432e+00  3.78134e-01
       L -3.63279e+00  6.01325e+00  9.29704e-01
       L -3.45971e+00  3.55809e+00  9.08721e-01
6
# CELL(abcABC):  459.05226   459.05226   459.05226    90.00000    90.00000    90.00000  Step:          48  Bead:       0 x_centroid{angstrom}  cell{atomic_unit}
       C -2.85144e-01  2.39525e-02  1.07697e-01
       O  8.82365e-01  1.99285e-01 -2.36329e-01
       H -1.38222e+00  3.12231e-01  2.73523e-01
       H -3.86824e-01 -1.09765e+00  3.74365e-01
       L -4.04063e+00  5.97540e+00  9.07407e-01
       L -3.41710e+00  3.58825e+00  8.80659e-01
6
# CELL(abcABC):  459.05226   459.05226   459.05226    90.00000    90.00000    90.00000  Step:          49  Bead:       0 x_centroid{angstrom}  cell{atomic_unit}
       C -2.92833e-01  1.85934e-02  1.10588e-01
       O  8.80885e-01  2.02246e-01 -2.37210e-01
       H -1.29299e+00  3.58642e-01  2.57157e-01
       H -3.60771e-01 -1.12716e+00  3.70304e-01
       L -4.41083e+00  5.87796e+00  8.84932e-01
       L -3.34881e+00  3.57757e+00  8.35104e-01
6
# CELL(abcABC):  459.05226   459.05226   459.05226    90.00000    90.00000    90.00000  Step:          50  Bead:       0 x_centroid{angstrom}  cell{atomic_unit}
       C -2.99230e-01  1.17305e-02  1.13715e-01
       O  8.78678e-01  2.05654e-01 -2.38214e-01
       H -1.20456e+00  4.11084e-01  2.40946e-01
       H -3.37821e-01 -1.15185e+00  3.65224e-01
       L -4.75691e+00  5.71823e+00  8.75181e-01
       L -3.22586e+00  3.60453e+00  7.92166e-01
6
# CELL(abcABC):  459.05226   459.05226   459.05226    90.00000    90.00000    90.00000  Step:          51  Bead:       0 x_centroid{angstrom}  cell{atomic_unit}
       C -3.03761e-01  3.00658e-03  1.16841e-01
       O  8.75635e-01  2.09408e-01 -2.39140e-01
       H -1.12279e+00  4.73086e-01  2.24593e-01
       H -3.17199e-01 -1.16936e+00  3.59066e-01
       L -5.09109e+00  5.53868e+00  8.53695e-01
       L -3.07494e+00  3.58784e+00  7.49932e-01
6
# CELL(abcABC):  459.05226   459.05226   459.05226    90.00000    90.00000    90.00000  Step:          52  Bead:       0 x_centroid{angstrom}  cell{atomic_unit}
       C -3.06032e-01 -7.49707e-03  1.19543e-01
       O  8.71936e-01  2.13202e-01 -2.39749e-01
       H -1.05487e+00  5.47016e-01  2.08299e-01
       H -2.99311e-01 -1.17819e+00  3.52845e-01
       L -5.33063e+00  5.25310e+00  8.25233e-01
       L -2.90056e+00  3.56188e+00  7.45935e-01
6
# CELL(abcABC):  459.05226   459.05226   459.05226    90.00000    90.00000    90.00000  Step:          53  Bead:       0 x_centroid{angstrom}  cell{atomic_unit}
       C -3.05545e-01 -2.01711e-02  1.21874e-01
       O  8.67438e-01  2.17367e-01 -2.40092e-01
       H -1.00266e+00  6.34527e-01  1.93296e-01
       H -2.85918e-01 -1.18059e+00  3.45585e-01
       L -5.49666e+00  4.94673e+00  7.57088e-01
       L -2.74244e+00  3.49934e+00  6.84539e-01
6
# CELL(abcABC):  459.05226   459.05226   459.05226    90.00000    90.00000    90.00000  Step:          54  Bead:       0 x_centroid{angstrom}  cell{atomic_unit}
       C -3.02973e-01 -3.41578e-02  1.23841e-01
       O  8.62390e-01  2.21613e-01 -2.40287e-01
       H -9.62002e-01  7.29968e-01  1.79856e-01
       H -2.77123e-01 -1.17649e+00  3.38751e-01
       L -5.65084e+00  4.55561e+00  6.93923e-01
       L -2.53299e+00  3.39099e+00  5.95951e-01
6
# CELL(abcABC):  459.05226   459.05226   459.05226    90.00000    90.00000    90.00000  Step:          55  Bead:       0 x_centroid{angstrom}  cell{atomic_unit}
       C -2.98482e-01 -4.89768e-02  1.25300e-01
       O  8.56729e-01  2.25826e-01 -2.40156e-01
       H -9.28610e-01  8.30331e-01  1.67208e-01
       H -2.74243e-01 -1.16687e+00  3.32012e-01
       L -5.75529e+00  4.17278e+00  6.61340e-01
       L -2.31074e+00  3.28470e+00  5.01063e-01
6
# CELL(abcABC):  459.05226   459.05226   459.05226    90.00000    90.00000    90.00000  Step:          56  Bead:       0 x_centroid{angstrom}  cell{atomic_unit}
       C -2.92326e-01 -6.39186e-02  1.26596e-01
       O  8.50422e-01  2.30106e-01 -2.40017e-01
       H -8.98846e-01  9.27231e-01  1.56489e-01
       H -2.77358e-01 -1.15339e+00  3.25176e-01
       L -5.82150e+00  3.80947e+00  5.98012e-01
       L -2.03687e+00  3.13744e+00  3.86706e-01
6
# CELL(abcABC):  459.05226   459.05226   459.05226    90.00000    90.00000    90.00000  Step:          57  Bead:       0 x_centroid{angstrom}  cell{atomic_unit}
       C -2.84829e-01 -7.79366e-02  1.27310e-01
       O  8.43502e-01  2.34129e-01 -2.39650e-01
       H -8.69433e-01  1.01542e+00  1.47563e-01
       H -2.86341e-01 -1.13811e+00  3.19909e-01
       L -5.88923e+00  3.40347e+00  5.06024e-01
       L -1.80875e+00  3.02698e+00  2.26263e-01
6
# CELL(abcABC):  459.05226   459.05226   459.05226    90.00000    90.00000    90.00000  Step:          58  Bead:       0 x_centroid{angstrom}  cell{atomic_unit}
       C -2.76346e-01 -9.08838e-02  1.27458e-01
       O  8.36271e-01  2.38073e-01 -2.39078e-01
       H -8.40872e-01  1.09375e+00  1.40975e-01
       H -3.01359e-01 -1.12448e+00  3.15808e-01
       L -5.86475e+00  2.91210e+00  3.83770e-01
       L -1.55399e+00  2.97960e+00  5.45997e-02
6
# CELL(abcABC):  459.05226   459.05226   459.05226    90.00000    90.00000    90.00000  Step:          59  Bead:       0 x_centroid{angstrom}  cell{atomic_unit}
       C -2.67459e-01 -1.02040e-01  1.26876e-01
       O  8.29114e-01  2.41750e-01 -2.38247e-01
       H -8.14015e-01  1.15827e+00  1.37053e-01
       H -3.20705e-01 -1.11409e+00  3.13638e-01
       L -5.80625e+00  2.33717e+00  2.78439e-01
       L -1.25669e+00  2.93675e+00 -1.36426e-01
6
# CELL(abcABC):  459.05226   459.05226   459.05226    90.00000    90.00000    90.00000  Step:          60  Bead:       0 x_centroid{angstrom}  cell{atomic_unit}
       C -2.58232e-01 -1.11530e-01  1.25993e-01
       O  8.22124e-01  2.45239e-01 -2.37527e-01
       H -7.88247e-01  1.21098e+00  1.36538e-01
       H -3.45668e-01 -1.10871e+00  3.13441e-01
       L -5.74772e+00  1.69371e+00  1.63907e-01
       L -9.43133e-01  2.87888e+00 -3.75553e-01
6
# CELL(abcABC):  459.05226   459.05226   459.05226    90.00000    90.00000    90.00000  Step:          61  Bead:       0 x_centroid{angstrom}  cell{atomic_unit}
       C -2.48750e-01 -1.18996e-01  1.24744e-01
       O  8.15423e-01  2.48508e-01 -2.36732e-01
       H -7.65040e-01  1.25078e+00  1.37374e-01
       H -3.75712e-01 -1.11104e+00  3.15074e-01
       L -5.66686e+00  9.86534e-01  3.31644e-02
       L -6.41213e-01  2.82306e+00 -6.12537e-01
6
# CELL(abcABC):  459.05226   459.05226   459.05226    90.00000    90.00000    90.00000  Step:          62  Bead:       0 x_centroid{angstrom}  cell{atomic_unit}
       C -2.39223e-01 -1.24642e-01  1.23175e-01
       O  8.09195e-01  2.51651e-01 -2.35985e-01
       H -7.45081e-01  1.27755e+00  1.39960e-01
       H -4.10534e-01 -1.12004e+00  3.19511e-01
       L -5.51637e+00  3.57190e-01 -8.86234e-02
       L -4.15752e-01  2.77368e+00 -8.27396e-01
6
# CELL(abcABC):  459.05226   459.05226   459.05226    90.00000    90.00000    90.00000  Step:          63  Bead:       0 x_centroid{angstrom}  cell{atomic_unit}
       C -2.30111e-01 -1.28500e-01  1.21677e-01
       O  8.03760e-01  2.54537e-01 -2.35345e-01
       H -7.28683e-01  1.29091e+00  1.43273e-01
       H -4.49512e-01 -1.13287e+00  3.24050e-01
       L -5.28226e+00 -2.31373e-01 -2.22727e-01
       L -1.65434e-01  2.67291e+00 -1.01305e+00
6
# CELL(abcABC):  459.05226   459.05226   459.05226    90.00000    90.00000    90.00000  Step:          64  Bead:       0 x_centroid{angstrom}  cell{atomic_unit}
       C -2.21294e-01 -1.30517e-01  1.19828e-01
       O  7.99068e-01  2.57035e-01 -2.34703e-01
       H -7.16924e-01  1.29241e+00  1.48401e-01
       H -4.92098e-01 -1.14954e+00  3.30955e-01
       L -5.04819e+00 -8.58215e-01 -3.50281e-01
       L  4.74136e-02  2.52829e+00 -1.20901e+00
6
# CELL(abcABC):  459.05226   459.05226   459.05226    90.00000    90.00000    90.00000  Step:          65  Bead:       0 x_centroid{angstrom}  cell{atomic_unit}
       C -2.13512e-01 -1.31037e-01  1.18402e-01
       O  7.95428e-01  2.58982e-01 -2.34481e-01
       H -7.08003e-01  1.28448e+00  1.56125e-01
       H -5.36231e-01 -1.16591e+00  3.36889e-01
       L -4.78323e+00 -1.51436e+00 -4.59468e-01
       L  2.55538e-01  2.38978e+00 -1.45111e+00
6
# CELL(abcABC):  459.05226   459.05226   459.05226    90.00000    90.00000    90.00000  Step:          66  Bead:       0 x_centroid{angstrom}  cell{atomic_unit}
       C -2.06475e-01 -1.30371e-01  1.16894e-01