6
# CELL(abcABC):  459.05226   459.05226   459.05226    90.00000    90.00000    90.00000  Step:           0  Bead:       0 x_centroid{angstrom}  cell{atomic_unit}
       C -3.39887e-01 -1.13437e-01  8.06659e-02
       O  8.43483e-01  2.62672e-01 -1.81512e-01
       H -7.35799e-02  8.16467e-01 -6.61432e-01
       H -4.30016e-01 -9.65701e-01  7.62278e-01
       L  0.00000e+00  0.00000e+00  0.00000e+00
       L  0.00000e+00  0.00000e+00  0.00000e+00
6
# CELL(abcABC):  459.05226   459.05226   459.05226    90.00000    90.00000    90.00000  Step:           1  Bead:       0 x_centroid{angstrom}  cell{atomic_unit}
       C -3.42449e-01 -1.11712e-01  8.04987e-02
       O  8.45608e-01  2.61536e-01 -1.81983e-01
       H -7.84218e-02  8.11109e-01 -6.59954e-01
       H -4.28274e-01 -9.63015e-01  7.70254e-01
       L  6.21334e-01  4.61132e-03 -2.11549e-01
       L -8.01353e-01  2.56418e-01  2.18367e-01
6
# CELL(abcABC):  459.05226   459.05226   459.05226    90.00000    90.00000    90.00000  Step:           2  Bead:       0 x_centroid{angstrom}  cell{atomic_unit}
       C -3.44829e-01 -1.10101e-01  8.02658e-02
       O  8.47512e-01  2.60424e-01 -1.82328e-01
       H -8.22665e-02  8.05737e-01 -6.59238e-01
       H -4.26173e-01 -9.59292e-01  7.77758e-01
       L  1.22208e+00 -6.96550e-04 -3.78813e-01
       L -1.62842e+00  4.55183e-01  4.61370e-01
6
# CELL(abcABC):  459.05226   459.05226   459.05226    90.00000    90.00000    90.00000  Step:           3  Bead:       0 x_centroid{angstrom}  cell{atomic_unit}
       C -3.47018e-01 -1.08241e-01  7.99533e-02
       O  8.49251e-01  2.59134e-01 -1.82565e-01
       H -8.64119e-02  7.99786e-01 -6.57895e-01
       H -4.23441e-01 -9.55168e-01  7.83841e-01
       L  1.81205e+00  1.71946e-02 -5.06141e-01
       L -2.41419e+00  6.81800e-01  6.87690e-01
6
# CELL(abcABC):  459.05226   459.05226   459.05226    90.00000    90.00000    90.00000  Step:           4  Bead:       0 x_centroid{angstrom}  cell{atomic_unit}
       C -3.49245e-01 -1.06773e-01  7.95829e-02
       O  8.50978e-01  2.58001e-01 -1.82742e-01
       H -9.10476e-02  7.96004e-01 -6.56252e-01
       H -4.19569e-01 -9.50987e-01  7.89343e-01
       L  2.37877e+00  7.93270e-02 -5.93392e-01
       L -3.16285e+00  7.90356e-01  9.10940e-01
6
# CELL(abcABC):  459.05226   459.05226   459.05226    90.00000    90.00000    90.00000  Step:           5  Bead:       0 x_centroid{angstrom}  cell{atomic_unit}
       C -3.50977e-01 -1.05445e-01  7.92572e-02
       O  8.52495e-01  2.56927e-01 -1.82810e-01
       H -9.70627e-02  7.92959e-01 -6.55614e-01
       H -4.16894e-01 -9.46805e-01  7.93612e-01
       L  2.92803e+00  1.12818e-01 -6.81499e-01
       L -3.91729e+00  9.24092e-01  1.09506e+00
6
# CELL(abcABC):  459.05226   459.05226   459.05226    90.00000    90.00000    90.00000  Step:           6  Bead:       0 x_centroid{angstrom}  cell{atomic_unit}
       C -3.52466e-01 -1.04203e-01  7.89055e-02
       O  8.53871e-01  2.55783e-01 -1.82668e-01
       H -1.03936e-01  7.90937e-01 -6.55942e-01
       H -4.13988e-01 -9.41525e-01  7.95807e-01
       L  3.41506e+00  1.47233e-01 -7.54204e-01
       L -4.64460e+00  1.05138e+00  1.30971e+00
6
# CELL(abcABC):  459.05226   459.05226   459.05226    90.00000    90.00000    90.00000  Step:           7  Bead:       0 x_centroid{angstrom}  cell{atomic_unit}
       C -3.53314e-01 -1.02912e-01  7.83675e-02
       O  8.54948e-01  2.54597e-01 -1.82278e-01
       H -1.12259e-01  7.89261e-01 -6.57492e-01
       H -4.12525e-01 -9.36432e-01  7.97463e-01
       L  3.86494e+00  1.64261e-01 -7.88553e-01
       L -5.32935e+00  1.12349e+00  1.53654e+00
6
# CELL(abcABC):  459.05226   459.05226   459.05226    90.00000    90.00000    90.00000  Step:           8  Bead:       0 x_centroid{angstrom}  cell{atomic_unit}
       C -3.53664e-01 -1.01190e-01  7.76737e-02
       O  8.55891e-01  2.53040e-01 -1.81805e-01
       H -1.23450e-01  7.87340e-01 -6.59461e-01
       H -4.12022e-01 -9.30384e-01  8.00096e-01
       L  4.28293e+00  1.92174e-01 -7.96134e-01
       L -5.97495e+00  1.20957e+00  1.74778e+00
6
# CELL(abcABC):  459.05226   459.05226   459.05226    90.00000    90.00000    90.00000  Step:           9  Bead:       0 x_centroid{angstrom}  cell{atomic_unit}
       C -3.53598e-01 -9.92562e-02  7.67187e-02
       O  8.56829e-01  2.51305e-01 -1.80912e-01
       H -1.37805e-01  7.85197e-01 -6.63104e-01
       H -4.13225e-01 -9.23809e-01  8.00822e-01
       L  4.66921e+00  2.26819e-01 -8.16020e-01
       L -6.54161e+00  1.29485e+00  1.98569e+00
6
# CELL(abcABC):  459.05226   459.05226   459.05226    90.00000    90.00000    90.00000  Step:          10  Bead:       0 x_centroid{angstrom}  cell{atomic_unit}
       C -3.52978e-01 -9.76254e-02  7.55001e-02
       O  8.57513e-01  2.49718e-01 -1.79755e-01
       H -1.54519e-01  7.84501e-01 -6.67556e-01
       H -4.14680e-01 -9.17417e-01  8.01262e-01
       L  5.03613e+00  2.90819e-01 -8.34859e-01
       L -7.04872e+00  1.33539e+00  2.30952e+00
6
# CELL(abcABC):  459.05226   459.05226   459.05226    90.00000    90.00000    90.00000  Step:          11  Bead:       0 x_centroid{angstrom}  cell{atomic_unit}
       C -3.51812e-01 -9.54713e-02  7.41277e-02
       O  8.58236e-01  2.47860e-01 -1.78439e-01
       H -1.76822e-01  7.82221e-01 -6.72210e-01
       H -4.17718e-01 -9.11363e-01  8.01254e-01
       L  5.37694e+00  3.47854e-01 -8.65689e-01
       L -7.46713e+00  1.35695e+00  2.56570e+00
6
# CELL(abcABC):  459.05226   459.05226   459.05226    90.00000    90.00000    90.00000  Step:          12  Bead:       0 x_centroid{angstrom}  cell{atomic_unit}
       C -3.49857e-01 -9.30870e-02  7.24961e-02
       O  8.58900e-01  2.45783e-01 -1.76887e-01
       H -2.05878e-01  7.80714e-01 -6.76579e-01
       H -4.22471e-01 -9.05344e-01  8.00346e-01
       L  5.66910e+00  3.81684e-01 -8.97607e-01
       L -7.79557e+00  1.40514e+00  2.76035e+00
6
# CELL(abcABC):  459.05226   459.05226   459.05226    90.00000    90.00000    90.00000  Step:          13  Bead:       0 x_centroid{angstrom}  cell{atomic_unit}
       C -3.47101e-01 -9.03453e-02  7.05770e-02
       O  8.59677e-01  2.43515e-01 -1.75077e-01
       H -2.42868e-01  7.78502e-01 -6.81277e-01
       H -4.30651e-01 -8.99813e-01  7.99075e-01
       L  5.90473e+00  4.12196e-01 -9.10764e-01
       L -8.04077e+00  1.39814e+00  2.95638e+00
6
# CELL(abcABC):  459.05226   459.05226   459.05226    90.00000    90.00000    90.00000  Step:          14  Bead:       0 x_centroid{angstrom}  cell{atomic_unit}
       C -3.43592e-01 -8.71528e-02  6.84112e-02
       O  8.60584e-01  2.40911e-01 -1.73048e-01
       H -2.87553e-01  7.75783e-01 -6.85537e-01
       H -4.42144e-01 -8.93793e-01  7.96845e-01
       L  6.04325e+00  4.17362e-01 -9.55888e-01
       L -8.23546e+00  1.37554e+00  3.16971e+00
6
# CELL(abcABC):  459.05226   459.05226   459.05226    90.00000    90.00000    90.00000  Step:          15  Bead:       0 x_centroid{angstrom}  cell{atomic_unit}
       C -3.39253e-01 -8.34682e-02  6.57493e-02
       O  8.61561e-01  2.38034e-01 -1.70656e-01
       H -3.42327e-01  7.70477e-01 -6.87945e-01
       H -4.54563e-01 -8.86675e-01  7.92928e-01
       L  6.14893e+00  4.14267e-01 -9.32016e-01
       L -8.36499e+00  1.30690e+00  3.27633e+00
6
# CELL(abcABC):  459.05226   459.05226   459.05226    90.00000    90.00000    90.00000  Step:          16  Bead:       0 x_centroid{angstrom}  cell{atomic_unit}
       C -3.33574e-01 -7.92475e-02  6.28460e-02
       O  8.62467e-01  2.34876e-01 -1.68105e-01
       H -4.09273e-01  7.62069e-01 -6.89080e-01
       H -4.69660e-01 -8.78378e-01  7.88103e-01
       L  6.20449e+00  4.09248e-01 -8.92119e-01
       L -8.46178e+00  1.20168e+00  3.36517e+00
6
# CELL(abcABC):  459.05226   459.05226   459.05226    90.00000    90.00000    90.00000  Step:          17  Bead:       0 x_centroid{angstrom}  cell{atomic_unit}
       C -3.26664e-01 -7.43098e-02  5.93281e-02
       O  8.63503e-01  2.31342e-01 -1.65116e-01
       H -4.89652e-01  7.49359e-01 -6.88792e-01
       H -4.88079e-01 -8.68320e-01  7.82220e-01
       L  6.22779e+00  4.17441e-01 -8.73553e-01
       L -8.46832e+00  1.03214e+00  3.46455e+00
6
# CELL(abcABC):  459.05226   459.05226   459.05226    90.00000    90.00000    90.00000  Step:          18  Bead:       0 x_centroid{angstrom}  cell{atomic_unit}
       C -3.18668e-01 -6.87982e-02  5.50975e-02
       O  8.64638e-01  2.27548e-01 -1.61749e-01
       H -5.81639e-01  7.32307e-01 -6.85803e-01
       H -5.09384e-01 -8.56661e-01  7.76107e-01
       L  6.17881e+00  4.67630e-01 -8.20035e-01
       L -8.42679e+00  8.76292e-01  3.57471e+00
6
# CELL(abcABC):  459.05226   459.05226   459.05226    90.00000    90.00000    90.00000  Step:          19  Bead:       0 x_centroid{angstrom}  cell{atomic_unit}
       C -3.09556e-01 -6.23334e-02  5.04783e-02
       O  8.65790e-01  2.23333e-01 -1.58265e-01
       H -6.85144e-01  7.10439e-01 -6.79211e-01
       H -5.32738e-01 -8.44836e-01  7.69196e-01
       L  6.07836e+00  4.65081e-01 -7.31550e-01
       L -8.33320e+00  7.16979e-01  3.61861e+00
6
# CELL(abcABC):  459.05226   459.05226   459.05226    90.00000    90.00000    90.00000  Step:          20  Bead:       0 x_centroid{angstrom}  cell{atomic_unit}
       C -2.99587e-01 -5.52707e-02  4.52524e-02
       O  8.66976e-01  2.18864e-01 -1.54411e-01
       H -7.96789e-01  6.84030e-01 -6.69859e-01
       H -5.58706e-01 -8.31543e-01  7.60891e-01
       L  5.90087e+00  4.41111e-01 -6.93951e-01
       L -8.15684e+00  5.51606e-01  3.66109e+00
6
# CELL(abcABC):  459.05226   459.05226   459.05226    90.00000    90.00000    90.00000  Step:          21  Bead:       0 x_centroid{angstrom}  cell{atomic_unit}
       C -2.88993e-01 -4.76383e-02  3.93433e-02
       O  8.68115e-01  2.14256e-01 -1.50297e-01
       H -9.13383e-01  6.52050e-01 -6.55686e-01
       H -5.86482e-01 -8.17328e-01  7.51840e-01
       L  5.74011e+00  4.34185e-01 -7.12873e-01
       L -7.91386e+00  4.88459e-01  3.64490e+00
6
# CELL(abcABC):  459.05226   459.05226   459.05226    90.00000    90.00000    90.00000  Step:          22  Bead:       0 x_centroid{angstrom}  cell{atomic_unit}
       C -2.78314e-01 -3.96323e-02  3.31371e-02
       O  8.69335e-01  2.09621e-01 -1.46182e-01
       H -1.03101e+00  6.14651e-01 -6.36526e-01
       H -6.15547e-01 -8.01714e-01  7.41338e-01
       L  5.56033e+00  4.40570e-01 -7.10008e-01
       L -7.58726e+00  3.99840e-01  3.60922e+00
6
# CELL(abcABC):  459.05226   459.05226   459.05226    90.00000    90.00000    90.00000  Step:          23  Bead:       0 x_centroid{angstrom}  cell{atomic_unit}
       C -2.67757e-01 -3.11164e-02  2.65511e-02
       O  8.70536e-01  2.04897e-01 -1.42080e-01
       H -1.14561e+00  5.73059e-01 -6.11421e-01
       H -6.45913e-01 -7.86566e-01  7.29648e-01
       L  5.37261e+00  4.86157e-01 -6.92427e-01
       L -7.18178e+00  2.52698e-01  3.49853e+00
6
# CELL(abcABC):  459.05226   459.05226   459.05226    90.00000    90.00000    90.00000  Step:          24  Bead:       0 x_centroid{angstrom}  cell{atomic_unit}
       C -2.57880e-01 -2.27531e-02  1.92783e-02
       O  8.71796e-01  2.00405e-01 -1.37730e-01
       H -1.25374e+00  5.29149e-01 -5.81923e-01
       H -6.75651e-01 -7.70966e-01  7.17822e-01
       L  5.19666e+00  5.85139e-01 -6.66653e-01
       L -6.69869e+00  7.66403e-02  3.36892e+00
6
# CELL(abcABC):  459.05226   459.05226   459.05226    90.00000    90.00000    90.00000  Step:          25  Bead:       0 x_centroid{angstrom}  cell{atomic_unit}
       C -2.49120e-01 -1.41004e-02  1.18170e-02
       O  8.73329e-01  1.95893e-01 -1.33402e-01
       H -1.35378e+00  4.82816e-01 -5.49223e-01
       H -7.04459e-01 -7.56063e-01  7.05403e-01
       L  4.92987e+00  6.51514e-01 -6.30000e-01
       L -6.21661e+00 -9.79022e-02  3.19145e+00
6
# CELL(abcABC):  459.05226   459.05226   459.05226    90.00000    90.00000    90.00000  Step:          26  Bead:       0 x_centroid{angstrom}  cell{atomic_unit}
       C -2.42119e-01 -5.38605e-03  4.40435e-03
       O  8.75408e-01  1.91470e-01 -1.29227e-01
       H -1.44419e+00  4.34332e-01 -5.13687e-01
       H -7.30595e-01 -7.41125e-01  6.92024e-01
       L  4.61156e+00  6.57200e-01 -5.57877e-01
       L -5.67316e+00 -2.60067e-01  2.95044e+00
6
# CELL(abcABC):  459.05226   459.05226   459.05226    90.00000    90.00000    90.00000  Step:          27  Bead:       0 x_centroid{angstrom}  cell{atomic_unit}
       C -2.36852e-01  3.22597e-03 -2.84053e-03
       O  8.77780e-01  1.87002e-01 -1.25353e-01
       H -1.52311e+00  3.87035e-01 -4.77384e-01
       H -7.52200e-01 -7.25417e-01  6.80673e-01
       L  4.22174e+00  6.51040e-01 -5.22295e-01
       L -5.07162e+00 -4.46568e-01  2.69511e+00
6
# CELL(abcABC):  459.05226   459.05226   459.05226    90.00000    90.00000    90.00000  Step:          28  Bead:       0 x_centroid{angstrom}  cell{atomic_unit}
       C -2.33304e-01  1.14764e-02 -9.68154e-03
       O  8.80451e-01  1.82731e-01 -1.21766e-01
       H -1.59045e+00  3.40925e-01 -4.41585e-01
       H -7.69688e-01 -7.09696e-01  6.69578e-01
       L  3.83413e+00  6.29638e-01 -4.70623e-01
       L -4.41269e+00 -6.52819e-01  2.43197e+00
6
# CELL(abcABC):  459.05226   459.05226   459.05226    90.00000    90.00000    90.00000  Step:          29  Bead:       0 x_centroid{angstrom}  cell{atomic_unit}
       C -2.31875e-01  1.91950e-02 -1.61596e-02
       O  8.83634e-01  1.78634e-01 -1.18415e-01
       H -1.64742e+00  2.99074e-01 -4.07491e-01
       H -7.80454e-01 -6.94631e-01  6.59618e-01
       L  3.45037e+00  5.98283e-01 -4.46288e-01
       L -3.68972e+00 -9.17126e-01  2.15962e+00
6
# CELL(abcABC):  459.05226   459.05226   459.05226    90.00000    90.00000    90.00000  Step:          30  Bead:       0 x_centroid{angstrom}  cell{atomic_unit}
       C -2.32506e-01  2.61844e-02 -2.24500e-02
       O  8.87279e-01  1.74809e-01 -1.15055e-01
       H -1.69197e+00  2.61692e-01 -3.77123e-01
       H -7.86439e-01 -6.79687e-01  6.50996e-01
       L  3.05576e+00  5.76953e-01 -4.01915e-01
       L -2.94958e+00 -1.14914e+00  1.89613e+00
6
# CELL(abcABC):  459.05226   459.05226   459.05226    90.00000    90.00000    90.00000  Step:          31  Bead:       0 x_centroid{angstrom}  cell{atomic_unit}
       C -2.35075e-01  3.24004e-02 -2.80939e-02
       O  8.91323e-01  1.71229e-01 -1.12083e-01
       H -1.72498e+00  2.29637e-01 -3.49762e-01
       H -7.87187e-01 -6.64746e-01  6.43852e-01
       L  2.60701e+00  5.38968e-01 -4.14010e-01
       L -2.16434e+00 -1.33873e+00  1.65020e+00
6
# CELL(abcABC):  459.05226   459.05226   459.05226    90.00000    90.00000    90.00000  Step:          32  Bead:       0 x_centroid{angstrom}  cell{atomic_unit}
       C -2.39482e-01  3.80878e-02 -3.31421e-02
       O  8.95788e-01  1.67712e-01 -1.09525e-01
       H -1.74823e+00  2.02834e-01 -3.26386e-01
       H -7.82485e-01 -6.49775e-01  6.40170e-01
       L  2.15702e+00  5.25492e-01 -3.87798e-01
       L -1.38637e+00 -1.52058e+00  1.36711e+00
6
# CELL(abcABC):  459.05226   459.05226   459.05226    90.00000    90.00000    90.00000  Step:          33  Bead:       0 x_centroid{angstrom}  cell{atomic_unit}
       C -2.45659e-01  4.31803e-02 -3.77655e-02
       O  9.00629e-01  1.64327e-01 -1.07181e-01
       H -1.76184e+00  1.81658e-01 -3.06640e-01
       H -7.72256e-01 -6.35452e-01  6.38452e-01
       L  1.66656e+00  5.46060e-01 -3.77951e-01
       L -6.10101e-01 -1.73082e+00  1.06871e+00
6
# CELL(abcABC):  459.05226   459.05226   459.05226    90.00000    90.00000    90.00000  Step:          34  Bead:       0 x_centroid{angstrom}  cell{atomic_unit}
       C -2.53324e-01  4.73429e-02 -4.16642e-02
       O  9.05598e-01  1.61341e-01 -1.05212e-01
       H -1.76618e+00  1.66658e-01 -2.91716e-01
       H -7.55595e-01 -6.22578e-01  6.38896e-01
       L  1.10518e+00  5.65723e-01 -3.20667e-01
       L  2.21551e-01 -1.90166e+00  7.10342e-01
6
# CELL(abcABC):  459.05226   459.05226   459.05226    90.00000    90.00000    90.00000  Step:          35  Bead:       0 x_centroid{angstrom}  cell{atomic_unit}
       C -2.62308e-01  5.09639e-02 -4.49703e-02
       O  9.10634e-01  1.58686e-01 -1.03463e-01
       H -1.76154e+00  1.55785e-01 -2.81714e-01
       H -7.33291e-01 -6.12572e-01  6.40671e-01
       L  5.48090e-01  5.44318e-01 -1.96829e-01
       L  1.10249e+00 -2.13258e+00  3.29178e-01
6
# CELL(abcABC):  459.05226   459.05226   459.05226    90.00000    90.00000    90.00000  Step:          36  Bead:       0 x_centroid{angstrom}  cell{atomic_unit}
       C -2.71904e-01  5.39365e-02 -4.78986e-02
       O  9.15279e-01  1.56296e-01 -1.01875e-01
       H -1.74721e+00  1.51196e-01 -2.76881e-01
       H -7.07128e-01 -6.05320e-01  6.45666e-01
       L -4.85523e-02  5.03685e-01 -3.43096e-02
       L  1.90412e+00 -2.34914e+00 -9.13565e-02
6
# CELL(abcABC):  459.05226   459.05226   459.05226    90.00000    90.00000    90.00000  Step:          37  Bead:       0 x_centroid{angstrom}  cell{atomic_unit}
       C -2.82040e-01  5.65448e-02 -5.03044e-02
       O  9.19406e-01  1.54041e-01 -1.00450e-01
       H -1.72251e+00  1.53168e-01 -2.78897e-01
       H -6.76637e-01 -6.02464e-01  6.53822e-01
       L -6.43116e-01  4.62301e-01  1.57509e-01
       L  2.64805e+00 -2.53750e+00 -4.52821e-01
6
# CELL(abcABC):  459.05226   459.05226   459.05226    90.00000    90.00000    90.00000  Step:          38  Bead:       0 x_centroid{angstrom}  cell{atomic_unit}
       C -2.92337e-01  5.84854e-02 -5.24165e-02
       O  9.22812e-01  1.52264e-01 -9.92334e-02
       H -1.68748e+00  1.60323e-01 -2.86433e-01
       H -6.43147e-01 -6.04402e-01  6.67286e-01
       L -1.15663e+00  4.08886e-01  3.69033e-01
       L  3.36255e+00 -2.72514e+00 -7.94993e-01
6
# CELL(abcABC):  459.05226   459.05226   459.05226    90.00000    90.00000    90.00000  Step:          39  Bead:       0 x_centroid{angstrom}  cell{atomic_unit}
       C -3.02747e-01  5.97366e-02 -5.36782e-02
       O  9.25463e-01  1.50880e-01 -9.86601e-02
       H -1.64123e+00  1.73231e-01 -2.98502e-01
       H -6.07522e-01 -6.10128e-01  6.85336e-01
       L -1.63334e+00  3.39052e-01  6.32498e-01
       L  4.04062e+00 -2.88548e+00 -1.14136e+00
6
# CELL(abcABC):  459.05226   459.05226   459.05226    90.00000    90.00000    90.00000  Step:          40  Bead:       0 x_centroid{angstrom}  cell{atomic_unit}
       C -3.13071e-01  6.04556e-02 -5.46835e-02
       O  9.27385e-01  1.49774e-01 -9.82024e-02
       H -1.58529e+00  1.90922e-01 -3.15278e-01
       H -5.71083e-01 -6.18670e-01  7.06869e-01
       L -2.11215e+00  1.72248e-01  8.67823e-01
       L  4.75727e+00 -3.01213e+00 -1.45701e+00
6
# CELL(abcABC):  459.05226   459.05226   459.05226    90.00000    90.00000    90.00000  Step:          41  Bead:       0 x_centroid{angstrom}  cell{atomic_unit}
       C -3.23136e-01  6.09301e-02 -5.51981e-02
       O  9.28668e-01  1.48863e-01 -9.79144e-02
       H -1.51949e+00  2.10831e-01 -3.37698e-01
       H -5.37422e-01 -6.29625e-01  7.30855e-01
       L -2.59248e+00  3.94024e-02  1.14036e+00
       L  5.43444e+00 -3.13802e+00 -1.74035e+00
6
# CELL(abcABC):  459.05226   459.05226   459.05226    90.00000    90.00000    90.00000  Step:          42  Bead:       0 x_centroid{angstrom}  cell{atomic_unit}
       C -3.32695e-01  6.08966e-02 -5.47461e-02
       O  9.29035e-01  1.48137e-01 -9.82145e-02
       H -1.44394e+00  2.35057e-01 -3.64249e-01
       H -5.04960e-01 -6.41764e-01  7.56838e-01
       L -3.02442e+00 -1.17447e-01  1.35942e+00
       L  5.98645e+00 -3.28034e+00 -2.05596e+00
6
# CELL(abcABC):  459.05226   459.05226   459.05226    90.00000    90.00000    90.00000  Step:          43  Bead:       0 x_centroid{angstrom}  cell{atomic_unit}
       C -3.41182e-01  6.03047e-02 -5.34698e-02
       O  9.28298e-01  1.47508e-01 -9.88890e-02
       H -1.36207e+00  2.63486e-01 -3.94647e-01
       H -4.74041e-01 -6.53032e-01  7.82837e-01
       L -3.45951e+00 -2.86240e-01  1.51093e+00
       L  6.48084e+00 -3.34661e+00 -2.39770e+00
6
# CELL(abcABC):  459.05226   459.05226   459.05226    90.00000    90.00000    90.00000  Step:          44  Bead:       0 x_centroid{angstrom}  cell{atomic_unit}
       C -3.48531e-01  5.92075e-02 -5.09215e-02
       O  9.26693e-01  1.46945e-01 -1.00150e-01
       H -1.27603e+00  2.96276e-01 -4.29802e-01
       H -4.47008e-01 -6.63718e-01  8.07719e-01
       L -3.89613e+00 -4.21163e-01  1.66457e+00
       L  6.89082e+00 -3.39440e+00 -2.70135e+00
6
# CELL(abcABC):  459.05226   459.05226   459.05226    90.00000    90.00000    90.00000  Step:          45  Bead:       0 x_centroid{angstrom}  cell{atomic_unit}
       C -3.54129e-01  5.70356e-02 -4.71507e-02
       O  9.24261e-01  1.46835e-01 -1.01892e-01
       H -1.19363e+00  3.33334e-01 -4.70837e-01
       H -4.24013e-01 -6.73075e-01  8.31549e-01
       L -4.34664e+00 -5.44028e-01  1.76359e+00
       L  7.18667e+00 -3.40793e+00 -2.94568e+00
6
# CELL(abcABC):  459.05226   459.05226   459.05226    90.00000    90.00000    90.00000  Step:          46  Bead:       0 x_centroid{angstrom}  cell{atomic_unit}
       C -3.57360e-01  5.38542e-02 -4.19950e-02
       O  9.20902e-01  1.46900e-01 -1.04022e-01
       H -1.11958e+00  3.77594e-01 -5.20786e-01
       H -4.06148e-01 -6.80392e-01  8.53981e-01
       L -4.77435e+00 -6.98207e-01  1.82931e+00
       L  7.44285e+00 -3.35512e+00 -3.19111e+00
6
# CELL(abcABC):  459.05226   459.05226   459.05226    90.00000    90.00000    90.00000  Step:          47  Bead:       0 x_centroid{angstrom}  cell{atomic_unit}
       C -3.57882e-01  4.94729e-02 -3.55258e-02
       O  9.16620e-01  1.47098e-01 -1.06347e-01
       H -1.05686e+00  4.30068e-01 -5.79585e-01
       H -3.94636e-01 -6.83767e-01  8.72669e-01
       L -5.10411e+00 -8.10265e-01  1.89733e+00
       L  7.65686e+00 -3.31467e+00 -3.40777e+00
6
# CELL(abcABC):  459.05226   459.05226   459.05226    90.00000    90.00000    90.00000  Step:          48  Bead:       0 x_centroid{angstrom}  cell{atomic_unit}
       C -3.55462e-01  4.40522e-02 -2.75378e-02
       O  9.11306e-01  1.47464e-01 -1.08961e-01
       H -1.00625e+00  4.88433e-01 -6.46807e-01
       H -3.89642e-01 -6.83295e-01  8.86298e-01
       L -5.34726e+00 -9.29324e-01  1.95225e+00
       L  7.76611e+00 -3.27699e+00 -3.62453e+00
6
# CELL(abcABC):  459.05226   459.05226   459.05226    90.00000    90.00000    90.00000  Step:          49  Bead:       0 x_centroid{angstrom}  cell{atomic_unit}
       C -3.50823e-01  3.77798e-02 -1.85093e-02
       O  9.05161e-01  1.47959e-01 -1.11767e-01
       H -9.63308e-01  5.50525e-01 -7.18384e-01
       H -3.90285e-01 -6.78454e-01  8.94935e-01
       L -5.49371e+00 -1.07421e+00  1.98138e+00
       L  7.83486e+00 -3.22014e+00 -3.84689e+00
6
# CELL(abcABC):  459.05226   459.05226   459.05226    90.00000    90.00000    90.00000  Step:          50  Bead:       0 x_centroid{angstrom}  cell{atomic_unit}
       C -3.44371e-01  3.13457e-02 -8.84736e-03
       O  8.98358e-01  1.48439e-01 -1.14659e-01
       H -9.22982e-01  6.11204e-01 -7.89871e-01
       H -3.99456e-01 -6.70079e-01  8.97256e-01
       L -5.59038e+00 -1.19728e+00  2.02872e+00
       L  7.85532e+00 -3.11696e+00 -4.00230e+00
6
# CELL(abcABC):  459.05226   459.05226   459.05226    90.00000    90.00000    90.00000  Step:          51  Bead:       0 x_centroid{angstrom}  cell{atomic_unit}
       C -3.36597e-01  2.46724e-02  1.17115e-03
       O  8.91002e-01  1.49086e-01 -1.17999e-01
       H -8.83766e-01  6.68400e-01 -8.55630e-01
       H -4.14515e-01 -6.58042e-01  8.96660e-01
       L -5.61524e+00 -1.33913e+00  2.07470e+00
       L  7.83717e+00 -2.94459e+00 -4.07992e+00
6
# CELL(abcABC):  459.05226   459.05226   459.05226    90.00000    90.00000    90.00000  Step:          52  Bead:       0 x_centroid{angstrom}  cell{atomic_unit}
       C -3.27453e-01  1.82763e-02  1.08977e-02
       O  8.83037e-01  1.49617e-01 -1.21357e-01
       H -8.44461e-01  7.21348e-01 -9.14505e-01
       H -4.36318e-01 -6.43248e-01  8.92949e-01
       L -5.59664e+00 -1.44534e+00  2.09208e+00
       L  7.74675e+00 -2.74818e+00 -4.11326e+00
6
# CELL(abcABC):  459.05226   459.05226   459.05226    90.00000    90.00000    90.00000  Step:          53  Bead:       0 x_centroid{angstrom}  cell{atomic_unit}
       C -3.16910e-01  1.25187e-02  1.99771e-02
       O  8.74493e-01  1.50078e-01 -1.24715e-01
       H -8.06257e-01  7.67415e-01 -9.64718e-01
       H -4.64448e-01 -6.28064e-01  8.88264e-01
       L -5.60167e+00 -1.51065e+00  2.08619e+00
       L  7.58242e+00 -2.61073e+00 -4.08873e+00
6
# CELL(abcABC):  459.05226   459.05226   459.05226    90.00000    90.00000    90.00000  Step:          54  Bead:       0 x_centroid{angstrom}  cell{atomic_unit}
       C -3.05547e-01  7.64296e-03  2.79600e-02
       O  8.65860e-01  1.50373e-01 -1.27854e-01
       H -7.69476e-01  8.05393e-01 -1.00345e+00
       H -4.99487e-01 -6.12665e-01  8.81645e-01
       L -5.60326e+00 -1.59389e+00  2.11414e+00
       L  7.39419e+00 -2.45169e+00 -4.02874e+00
6
# CELL(abcABC):  459.05226   459.05226   459.05226    90.00000    90.00000    90.00000  Step:          55  Bead:       0 x_centroid{angstrom}  cell{atomic_unit}
       C -2.93459e-01  3.37857e-03  3.49625e-02
       O  8.57203e-01  1.50736e-01 -1.31001e-01
       H -7.35851e-01  8.34998e-01 -1.03209e+00
       H -5.39645e-01 -5.97253e-01  8.76729e-01
       L -5.53653e+00 -1.66734e+00  2.14095e+00
       L  7.15643e+00 -2.30741e+00 -3.92411e+00
6
# CELL(abcABC):  459.05226   459.05226   459.05226    90.00000    90.00000    90.00000  Step:          56  Bead:       0 x_centroid{angstrom}  cell{atomic_unit}
       C -2.81187e-01 -3.12035e-04  4.11936e-02
       O  8.48937e-01  1.51163e-01 -1.34325e-01
       H -7.05029e-01  8.57357e-01 -1.04989e+00
       H -5.85413e-01 -5.82489e-01  8.72956e-01
       L -5.40939e+00 -1.66383e+00  2.14354e+00
       L  6.86689e+00 -2.17239e+00 -3.77007e+00
6
# CELL(abcABC):  459.05226   459.05226   459.05226    90.00000    90.00000    90.00000  Step:          57  Bead:       0 x_centroid{angstrom}  cell{atomic_unit}
       C -2.69140e-01 -3.07956e-03  4.60175e-02
       O  8.41466e-01  1.51443e-01 -1.37225e-01
       H -6.79425e-01  8.72032e-01 -1.05919e+00
       H -6.35878e-01 -5.68752e-01  8.70693e-01
       L -5.22209e+00 -1.61405e+00  2.12544e+00
       L  6.48909e+00 -2.00979e+00 -3.54879e+00
6
# CELL(abcABC):  459.05226   459.05226   459.05226    90.00000    90.00000    90.00000  Step:          58  Bead:       0 x_centroid{angstrom}  cell{atomic_unit}
       C -2.57865e-01 -4.90592e-03  4.99046e-02
       O  8.35235e-01  1.51476e-01 -1.39939e-01
       H -6.58921e-01  8.79241e-01 -1.06108e+00
       H -6.91720e-01 -5.54874e-01  8.69241e-01
       L -5.01263e+00 -1.52730e+00  2.05208e+00
       L  6.09063e+00 -1.81765e+00 -3.30152e+00
6
# CELL(abcABC):  459.05226   459.05226   459.05226    90.00000    90.00000    90.00000  Step:          59  Bead:       0 x_centroid{angstrom}  cell{atomic_unit}
       C -2.47818e-01 -5.56294e-03  5.27803e-02
       O  8.30302e-01  1.51201e-01 -1.42393e-01
       H -6.42933e-01  8.78783e-01 -1.05424e+00
       H -7.48999e-01 -5.42354e-01  8.67016e-01
       L -4.76110e+00 -1.41094e+00  1.95552e+00
       L  5.61250e+00 -1.68795e+00 -3.05069e+00
6
# CELL(abcABC):  459.05226   459.05226   459.05226    90.00000    90.00000    90.00000  Step:          60  Bead:       0 x_centroid{angstrom}  cell{atomic_unit}
       C -2.39244e-01 -5.45951e-03  5.47415e-02
       O  8.26876e-01  1.50800e-01 -1.44750e-01
       H -6.32537e-01  8.72347e-01 -1.03695e+00
       H -8.07073e-01 -5.30913e-01  8.63674e-01
       L -4.43716e+00 -1.30600e+00  1.86417e+00
       L  5.09008e+00 -1.56531e+00 -2.78019e+00
6
# CELL(abcABC):  459.05226   459.05226   459.05226    90.00000    90.00000    90.00000  Step:          61  Bead:       0 x_centroid{angstrom}  cell{atomic_unit}
       C -2.32523e-01 -4.73791e-03  5.60449e-02
       O  8.25075e-01  1.50206e-01 -1.46963e-01
       H -6.26757e-01  8.60316e-01 -1.01216e+00
       H -8.64224e-01 -5.18208e-01  8.58424e-01
       L -4.12134e+00 -1.13991e+00  1.70580e+00
       L  4.55019e+00 -1.42890e+00 -2.51190e+00
6
# CELL(abcABC):  459.05226   459.05226   459.05226    90.00000    90.00000    90.00000  Step:          62  Bead:       0 x_centroid{angstrom}  cell{atomic_unit}
       C -2.28353e-01 -3.11814e-03  5.65482e-02
       O  8.25395e-01  1.49314e-01 -1.48852e-01
       H -6.27072e-01  8.41756e-01 -9.80563e-01
       H -9.18607e-01 -5.04959e-01  8.50801e-01
       L -3.74645e+00 -9.54106e-01  1.44229e+00
       L  4.01355e+00 -1.31154e+00 -2.24957e+00
6
# CELL(abcABC):  459.05226   459.05226   459.05226    90.00000    90.00000    90.00000  Step:          63  Bead:       0 x_centroid{angstrom}  cell{atomic_unit}
       C -2.27017e-01 -1.00042e-03  5.64564e-02
       O  8.27984e-01  1.48315e-01 -1.50544e-01
       H -6.34239e-01  8.17583e-01 -9.42746e-01
       H -9.68385e-01 -4.90384e-01  8.40901e-01
       L -3.24918e+00 -7.27198e-01  1.20634e+00
       L  3.41369e+00 -1.14880e+00 -1.93902e+00
6
# CELL(abcABC):  459.05226   459.05226   459.05226    90.00000    90.00000    90.00000  Step:          64  Bead:       0 x_centroid{angstrom}  cell{atomic_unit}
       C -2.28447e-01  1.30328e-03  5.58783e-02
       O  8.32781e-01  1.47451e-01 -1.52154e-01
       H -6.47382e-01  7.88786e-01 -8.97579e-01
       H -1.01432e+00 -4.75521e-01  8.28117e-01
       L -2.69504e+00 -4.77500e-01  9.47647e-01
       L  2.79243e+00 -1.02668e+00 -1.58132e+00
6
# CELL(abcABC):  459.05226   459.05226   459.05226    90.00000    90.00000    90.00000  Step:          65  Bead:       0 x_centroid{angstrom}  cell{atomic_unit}
       C -2.32438e-01  3.88365e-03  5.46579e-02
       O  8.39428e-01  1.46603e-01 -1.53480e-01
       H -6.66536e-01  7.55343e-01 -8.45624e-01
       H -1.05307e+00 -4.59607e-01  8.11708e-01
       L -2.11360e+00 -1.71193e-01  7.10371e-01
       L  2.12083e+00 -8.86080e-01 -1.23613e+00
6
# CELL(abcABC):  459.05226   459.05226   459.05226    90.00000    90.00000    90.00000  Step:          66  Bead:       0 x_centroid{angstrom}  cell{atomic_unit}
       C -2.38964e-01  6.94727e-03  5.29722e-02