6
# CELL(abcABC):  459.05226   459.05226   459.05226    90.00000    90.00000    90.00000  Step:           0  Bead:       0 x_centroid{angstrom}  cell{atomic_unit}
       C -3.39887e-01 -1.13437e-01  8.06659e-02
       O  8.43483e-01  2.62672e-01 -1.81512e-01
       H -7.35799e-02  8.16467e-01 -6.61432e-01
       H -4.30016e-01 -9.65701e-01  7.62278e-01
       L  0.00000e+00  0.00000e+00  0.00000e+00
       L  0.00000e+00  0.00000e+00  0.00000e+00
6
# CELL(abcABC):  459.05226   459.05226   459.05226    90.00000    90.00000    90.00000  Step:           1  Bead:       0 x_centroid{angstrom}  cell{atomic_unit}
       C -3.38701e-01 -1.14472e-01  7.93655e-02
       O  8.43765e-01  2.63855e-01 -1.81079e-01
       H -7.92069e-02  8.11531e-01 -6.53788e-01
       H -4.42980e-01 -9.67149e-01  7.63376e-01
       L  3.98278e-01  1.39516e-01 -2.13561e-01
       L -4.09249e-01 -2.55529e-01 -2.89845e-02
6
# CELL(abcABC):  459.05226   459.05226   459.05226    90.00000    90.00000    90.00000  Step:           2  Bead:       0 x_centroid{angstrom}  cell{atomic_unit}
       C -3.37553e-01 -1.15304e-01  7.83203e-02
       O  8.44041e-01  2.64851e-01 -1.80721e-01
       H -8.53200e-02  8.05474e-01 -6.47834e-01
       H -4.54930e-01 -9.66946e-01  7.64327e-01
       L  7.79432e-01  3.35521e-01 -4.26061e-01
       L -8.01429e-01 -5.25919e-01 -5.57927e-02
6
# CELL(abcABC):  459.05226   459.05226   459.05226    90.00000    90.00000    90.00000  Step:           3  Bead:       0 x_centroid{angstrom}  cell{atomic_unit}
       C -3.36462e-01 -1.16236e-01  7.73533e-02
       O  8.44272e-01  2.65862e-01 -1.80352e-01
       H -9.10486e-02  7.99570e-01 -6.42332e-01
       H -4.65867e-01 -9.65954e-01  7.64608e-01
       L  1.14040e+00  5.32226e-01 -6.50593e-01
       L -1.18287e+00 -7.81844e-01 -4.98636e-02
6
# CELL(abcABC):  459.05226   459.05226   459.05226    90.00000    90.00000    90.00000  Step:           4  Bead:       0 x_centroid{angstrom}  cell{atomic_unit}
       C -3.35719e-01 -1.17171e-01  7.64914e-02
       O  8.44808e-01  2.66767e-01 -1.79991e-01
       H -9.82304e-02  7.93689e-01 -6.37355e-01
       H -4.75980e-01 -9.63277e-01  7.64316e-01
       L  1.46614e+00  7.31915e-01 -8.98702e-01
       L -1.59611e+00 -1.02207e+00 -5.29525e-02
6
# CELL(abcABC):  459.05226   459.05226   459.05226    90.00000    90.00000    90.00000  Step:           5  Bead:       0 x_centroid{angstrom}  cell{atomic_unit}
       C -3.34892e-01 -1.18118e-01  7.57648e-02
       O  8.45409e-01  2.67541e-01 -1.79579e-01
       H -1.07864e-01  7.89778e-01 -6.35097e-01
       H -4.85745e-01 -9.60287e-01  7.64299e-01
       L  1.80187e+00  8.53969e-01 -1.13437e+00
       L -1.95135e+00 -1.28678e+00 -4.68702e-02
6
# CELL(abcABC):  459.05226   459.05226   459.05226    90.00000    90.00000    90.00000  Step:           6  Bead:       0 x_centroid{angstrom}  cell{atomic_unit}
       C -3.33978e-01 -1.19122e-01  7.49695e-02
       O  8.46159e-01  2.68247e-01 -1.78938e-01
       H -1.20528e-01  7.86771e-01 -6.34902e-01
       H -4.95872e-01 -9.56481e-01  7.63482e-01
       L  2.13835e+00  1.01641e+00 -1.38846e+00
       L -2.30177e+00 -1.53431e+00  6.33544e-02
6
# CELL(abcABC):  459.05226   459.05226   459.05226    90.00000    90.00000    90.00000  Step:           7  Bead:       0 x_centroid{angstrom}  cell{atomic_unit}
       C -3.32914e-01 -1.20046e-01  7.39918e-02
       O  8.47164e-01  2.68808e-01 -1.77976e-01
       H -1.38860e-01  7.84688e-01 -6.37215e-01
       H -5.06158e-01 -9.52237e-01  7.62227e-01
       L  2.43262e+00  1.14237e+00 -1.61664e+00
       L -2.59737e+00 -1.77192e+00  1.92165e-01
6
# CELL(abcABC):  459.05226   459.05226   459.05226    90.00000    90.00000    90.00000  Step:           8  Bead:       0 x_centroid{angstrom}  cell{atomic_unit}
       C -3.31807e-01 -1.20809e-01  7.28501e-02
       O  8.48473e-01  2.69151e-01 -1.76945e-01
       H -1.62538e-01  7.82886e-01 -6.39462e-01
       H -5.16429e-01 -9.46762e-01  7.61735e-01
       L  2.66901e+00  1.28627e+00 -1.76846e+00
       L -2.87491e+00 -1.97373e+00  3.05951e-01
6
# CELL(abcABC):  459.05226   459.05226   459.05226    90.00000    90.00000    90.00000  Step:           9  Bead:       0 x_centroid{angstrom}  cell{atomic_unit}
       C -3.30268e-01 -1.21269e-01  7.15193e-02
       O  8.49890e-01  2.69335e-01 -1.75745e-01
       H -1.93091e-01  7.80231e-01 -6.42313e-01
       H -5.26715e-01 -9.41459e-01  7.61397e-01
       L  2.88191e+00  1.39470e+00 -1.91841e+00
       L -3.08412e+00 -2.20369e+00  4.57899e-01
6
# CELL(abcABC):  459.05226   459.05226   459.05226    90.00000    90.00000    90.00000  Step:          10  Bead:       0 x_centroid{angstrom}  cell{atomic_unit}
       C -3.28542e-01 -1.21391e-01  7.00218e-02
       O  8.51665e-01  2.69189e-01 -1.74389e-01
       H -2.32391e-01  7.75682e-01 -6.45054e-01
       H -5.36210e-01 -9.33122e-01  7.60483e-01
       L  3.12776e+00  1.50662e+00 -2.12802e+00
       L -3.24590e+00 -2.36453e+00  6.10458e-01
6
# CELL(abcABC):  459.05226   459.05226   459.05226    90.00000    90.00000    90.00000  Step:          11  Bead:       0 x_centroid{angstrom}  cell{atomic_unit}
       C -3.26115e-01 -1.20689e-01  6.79721e-02
       O  8.53458e-01  2.68551e-01 -1.72613e-01
       H -2.81399e-01  7.69444e-01 -6.47920e-01
       H -5.44614e-01 -9.25110e-01  7.59627e-01
       L  3.32480e+00  1.61723e+00 -2.30482e+00
       L -3.36803e+00 -2.50825e+00  7.27119e-01
6
# CELL(abcABC):  459.05226   459.05226   459.05226    90.00000    90.00000    90.00000  Step:          12  Bead:       0 x_centroid{angstrom}  cell{atomic_unit}
       C -3.23194e-01 -1.19251e-01  6.55681e-02
       O  8.55598e-01  2.67511e-01 -1.70615e-01
       H -3.41669e-01  7.61474e-01 -6.49978e-01
       H -5.53194e-01 -9.17737e-01  7.58712e-01
       L  3.51440e+00  1.70417e+00 -2.50915e+00
       L -3.42660e+00 -2.63564e+00  7.43626e-01
6
# CELL(abcABC):  459.05226   459.05226   459.05226    90.00000    90.00000    90.00000  Step:          13  Bead:       0 x_centroid{angstrom}  cell{atomic_unit}
       C -3.19541e-01 -1.17141e-01  6.24214e-02
       O  8.57918e-01  2.66098e-01 -1.67983e-01
       H -4.13789e-01  7.51167e-01 -6.51642e-01
       H -5.61535e-01 -9.10151e-01  7.56178e-01
       L  3.69571e+00  1.79511e+00 -2.69405e+00
       L -3.40292e+00 -2.71093e+00  7.71898e-01
6
# CELL(abcABC):  459.05226   459.05226   459.05226    90.00000    90.00000    90.00000  Step:          14  Bead:       0 x_centroid{angstrom}  cell{atomic_unit}
       C -3.15023e-01 -1.13998e-01  5.82788e-02
       O  8.60436e-01  2.64163e-01 -1.64626e-01
       H -4.99753e-01  7.37333e-01 -6.52464e-01
       H -5.69466e-01 -9.03120e-01  7.53159e-01
       L  3.82858e+00  1.91509e+00 -2.88751e+00
       L -3.36266e+00 -2.73219e+00  8.12486e-01
6
# CELL(abcABC):  459.05226   459.05226   459.05226    90.00000    90.00000    90.00000  Step:          15  Bead:       0 x_centroid{angstrom}  cell{atomic_unit}
       C -3.09404e-01 -1.09549e-01  5.35301e-02
       O  8.62940e-01  2.61534e-01 -1.60992e-01
       H -5.97555e-01  7.19338e-01 -6.50539e-01
       H -5.78488e-01 -8.96448e-01  7.50212e-01
       L  3.97177e+00  2.02776e+00 -3.06222e+00
       L -3.29495e+00 -2.76103e+00  8.41840e-01
6
# CELL(abcABC):  459.05226   459.05226   459.05226    90.00000    90.00000    90.00000  Step:          16  Bead:       0 x_centroid{angstrom}  cell{atomic_unit}
       C -3.02612e-01 -1.04012e-01  4.82675e-02
       O  8.65296e-01  2.58347e-01 -1.57085e-01
       H -7.05985e-01  6.96744e-01 -6.45367e-01
       H -5.88501e-01 -8.89324e-01  7.45830e-01
       L  4.12076e+00  2.11999e+00 -3.23809e+00
       L -3.23343e+00 -2.68815e+00  8.50665e-01
6
# CELL(abcABC):  459.05226   459.05226   459.05226    90.00000    90.00000    90.00000  Step:          17  Bead:       0 x_centroid{angstrom}  cell{atomic_unit}
       C -2.94928e-01 -9.74613e-02  4.23615e-02
       O  8.67559e-01  2.54681e-01 -1.52805e-01
       H -8.23539e-01  6.68591e-01 -6.36953e-01
       H -5.98537e-01 -8.81104e-01  7.39933e-01
       L  4.22527e+00  2.13691e+00 -3.30921e+00
       L -3.15693e+00 -2.60757e+00  7.69074e-01
6
# CELL(abcABC):  459.05226   459.05226   459.05226    90.00000    90.00000    90.00000  Step:          18  Bead:       0 x_centroid{angstrom}  cell{atomic_unit}
       C -2.86310e-01 -9.03317e-02  3.57574e-02
       O  8.69325e-01  2.50940e-01 -1.48253e-01
       H -9.43586e-01  6.34837e-01 -6.24449e-01
       H -6.09316e-01 -8.72986e-01  7.33975e-01
       L  4.30833e+00  2.16604e+00 -3.37244e+00
       L -3.05917e+00 -2.52911e+00  6.50567e-01
6
# CELL(abcABC):  459.05226   459.05226   459.05226    90.00000    90.00000    90.00000  Step:          19  Bead:       0 x_centroid{angstrom}  cell{atomic_unit}
       C -2.77162e-01 -8.24556e-02  2.86273e-02
       O  8.70745e-01  2.47006e-01 -1.43474e-01
       H -1.06419e+00  5.95924e-01 -6.08016e-01
       H -6.20353e-01 -8.65523e-01  7.26698e-01
       L  4.35578e+00  2.18734e+00 -3.40582e+00
       L -2.93780e+00 -2.47175e+00  5.79562e-01
6
# CELL(abcABC):  459.05226   459.05226   459.05226    90.00000    90.00000    90.00000  Step:          20  Bead:       0 x_centroid{angstrom}  cell{atomic_unit}
       C -2.67699e-01 -7.37224e-02  2.12805e-02
       O  8.71644e-01  2.42737e-01 -1.38673e-01
       H -1.18000e+00  5.51156e-01 -5.87734e-01
       H -6.31619e-01 -8.57101e-01  7.17781e-01
       L  4.31104e+00  2.17767e+00 -3.41623e+00
       L -2.81643e+00 -2.37532e+00  5.42051e-01
6
# CELL(abcABC):  459.05226   459.05226   459.05226    90.00000    90.00000    90.00000  Step:          21  Bead:       0 x_centroid{angstrom}  cell{atomic_unit}
       C -2.58401e-01 -6.44884e-02  1.39546e-02
       O  8.72239e-01  2.38305e-01 -1.33984e-01
       H -1.28977e+00  5.01372e-01 -5.64348e-01
       H -6.42130e-01 -8.47042e-01  7.07235e-01
       L  4.24880e+00  2.19578e+00 -3.33340e+00
       L -2.67553e+00 -2.30796e+00  5.07971e-01
6
# CELL(abcABC):  459.05226   459.05226   459.05226    90.00000    90.00000    90.00000  Step:          22  Bead:       0 x_centroid{angstrom}  cell{atomic_unit}
       C -2.50139e-01 -5.51995e-02  6.52494e-03
       O  8.72860e-01  2.33912e-01 -1.29287e-01
       H -1.39017e+00  4.48900e-01 -5.38136e-01
       H -6.50094e-01 -8.35527e-01  6.94937e-01
       L  4.16467e+00  2.11211e+00 -3.25278e+00
       L -2.47530e+00 -2.23572e+00  5.44577e-01
6
# CELL(abcABC):  459.05226   459.05226   459.05226    90.00000    90.00000    90.00000  Step:          23  Bead:       0 x_centroid{angstrom}  cell{atomic_unit}
       C -2.42792e-01 -4.60933e-02 -9.91970e-04
       O  8.73328e-01  2.29681e-01 -1.24634e-01
       H -1.48028e+00  3.95022e-01 -5.09508e-01
       H -6.55034e-01 -8.23001e-01  6.81992e-01
       L  4.02789e+00  2.00658e+00 -3.22386e+00
       L -2.23126e+00 -2.12716e+00  5.59933e-01
6
# CELL(abcABC):  459.05226   459.05226   459.05226    90.00000    90.00000    90.00000  Step:          24  Bead:       0 x_centroid{angstrom}  cell{atomic_unit}
       C -2.36434e-01 -3.70675e-02 -8.24107e-03
       O  8.73740e-01  2.25495e-01 -1.20282e-01
       H -1.55935e+00  3.41241e-01 -4.79819e-01
       H -6.58312e-01 -8.10338e-01  6.69557e-01
       L  3.85022e+00  1.93378e+00 -3.14434e+00
       L -1.96368e+00 -2.02598e+00  5.74682e-01
6
# CELL(abcABC):  459.05226   459.05226   459.05226    90.00000    90.00000    90.00000  Step:          25  Bead:       0 x_centroid{angstrom}  cell{atomic_unit}
       C -2.31779e-01 -2.87696e-02 -1.53754e-02
       O  8.74388e-01  2.21690e-01 -1.15980e-01
       H -1.62538e+00  2.90050e-01 -4.50337e-01
       H -6.58105e-01 -7.97711e-01  6.56725e-01
       L  3.65161e+00  1.93190e+00 -3.08154e+00
       L -1.64410e+00 -1.86039e+00  6.44114e-01
6
# CELL(abcABC):  459.05226   459.05226   459.05226    90.00000    90.00000    90.00000  Step:          26  Bead:       0 x_centroid{angstrom}  cell{atomic_unit}
       C -2.29010e-01 -2.10942e-02 -2.19582e-02
       O  8.75521e-01  2.18302e-01 -1.12239e-01
       H -1.68013e+00  2.41441e-01 -4.20097e-01
       H -6.54392e-01 -7.86864e-01  6.45403e-01
       L  3.42030e+00  1.88783e+00 -2.92003e+00
       L -1.28498e+00 -1.66161e+00  7.29185e-01
6
# CELL(abcABC):  459.05226   459.05226   459.05226    90.00000    90.00000    90.00000  Step:          27  Bead:       0 x_centroid{angstrom}  cell{atomic_unit}
       C -2.28008e-01 -1.40528e-02 -2.79159e-02
       O  8.77071e-01  2.15248e-01 -1.09010e-01
       H -1.72436e+00  1.96405e-01 -3.90932e-01
       H -6.46789e-01 -7.77345e-01  6.35803e-01
       L  3.18966e+00  1.79555e+00 -2.68102e+00
       L -9.09905e-01 -1.42539e+00  8.27859e-01
6
# CELL(abcABC):  459.05226   459.05226   459.05226    90.00000    90.00000    90.00000  Step:          28  Bead:       0 x_centroid{angstrom}  cell{atomic_unit}
       C -2.28435e-01 -7.78575e-03 -3.39377e-02
       O  8.78801e-01  2.12554e-01 -1.05704e-01
       H -1.75758e+00  1.55765e-01 -3.63408e-01
       H -6.35979e-01 -7.68698e-01  6.27320e-01
       L  2.87823e+00  1.68491e+00 -2.39398e+00
       L -5.25241e-01 -1.16809e+00  9.59804e-01
6
# CELL(abcABC):  459.05226   459.05226   459.05226    90.00000    90.00000    90.00000  Step:          29  Bead:       0 x_centroid{angstrom}  cell{atomic_unit}
       C -2.30497e-01 -2.44045e-03 -3.91909e-02
       O  8.80929e-01  2.10311e-01 -1.02796e-01
       H -1.78060e+00  1.19681e-01 -3.39292e-01
       H -6.22204e-01 -7.60779e-01  6.19476e-01
       L  2.54924e+00  1.57857e+00 -2.12171e+00
       L -1.32642e-01 -9.32949e-01  9.91794e-01
6
# CELL(abcABC):  459.05226   459.05226   459.05226    90.00000    90.00000    90.00000  Step:          30  Bead:       0 x_centroid{angstrom}  cell{atomic_unit}
       C -2.34100e-01  2.35028e-03 -4.38888e-02
       O  8.83407e-01  2.08295e-01 -1.00184e-01
       H -1.79321e+00  8.81215e-02 -3.18129e-01
       H -6.06032e-01 -7.54317e-01  6.12642e-01
       L  2.20812e+00  1.42067e+00 -1.77914e+00
       L  2.72138e-01 -7.37886e-01  1.01036e+00
6
# CELL(abcABC):  459.05226   459.05226   459.05226    90.00000    90.00000    90.00000  Step:          31  Bead:       0 x_centroid{angstrom}  cell{atomic_unit}
       C -2.39184e-01  6.45909e-03 -4.81618e-02
       O  8.86254e-01  2.06626e-01 -9.78543e-02
       H -1.79670e+00  6.16744e-02 -3.00839e-01
       H -5.87177e-01 -7.50372e-01  6.09072e-01
       L  1.82871e+00  1.28195e+00 -1.36286e+00
       L  7.08966e-01 -5.55967e-01  9.93899e-01
6
# CELL(abcABC):  459.05226   459.05226   459.05226    90.00000    90.00000    90.00000  Step:          32  Bead:       0 x_centroid{angstrom}  cell{atomic_unit}
       C -2.45321e-01  9.79303e-03 -5.18571e-02
       O  8.89277e-01  2.05424e-01 -9.59065e-02
       H -1.79199e+00  4.00098e-02 -2.86597e-01
       H -5.66803e-01 -7.49334e-01  6.07744e-01
       L  1.46856e+00  1.11304e+00 -9.57667e-01
       L  1.18296e+00 -4.03270e-01  9.56774e-01
6
# CELL(abcABC):  459.05226   459.05226   459.05226    90.00000    90.00000    90.00000  Step:          33  Bead:       0 x_centroid{angstrom}  cell{atomic_unit}
       C -2.52715e-01  1.23934e-02 -5.48046e-02
       O  8.92499e-01  2.04622e-01 -9.44538e-02
       H -1.77694e+00  2.37330e-02 -2.76357e-01
       H -5.44965e-01 -7.51312e-01  6.09355e-01
       L  1.09597e+00  9.44925e-01 -5.78921e-01
       L  1.68766e+00 -2.52066e-01  9.69506e-01
6
# CELL(abcABC):  459.05226   459.05226   459.05226    90.00000    90.00000    90.00000  Step:          34  Bead:       0 x_centroid{angstrom}  cell{atomic_unit}
       C -2.61008e-01  1.41575e-02 -5.72739e-02
       O  8.95728e-01  2.04352e-01 -9.33476e-02
       H -1.75181e+00  1.24165e-02 -2.70966e-01
       H -5.22558e-01 -7.56730e-01  6.15628e-01
       L  6.74417e-01  7.47849e-01 -1.86306e-01
       L  2.17952e+00 -5.36306e-02  9.45477e-01
6
# CELL(abcABC):  459.05226   459.05226   459.05226    90.00000    90.00000    90.00000  Step:          35  Bead:       0 x_centroid{angstrom}  cell{atomic_unit}
       C -2.69865e-01  1.52583e-02 -5.86087e-02
       O  8.98641e-01  2.04292e-01 -9.31245e-02
       H -1.71624e+00  7.26709e-03 -2.69791e-01
       H -4.98872e-01 -7.63771e-01  6.26586e-01
       L  2.61257e-01  5.90208e-01  1.87381e-01
       L  2.65501e+00  1.46377e-01  9.99517e-01
6
# CELL(abcABC):  459.05226   459.05226   459.05226    90.00000    90.00000    90.00000  Step:          36  Bead:       0 x_centroid{angstrom}  cell{atomic_unit}
       C -2.79438e-01  1.56140e-02 -5.92328e-02
       O  9.01534e-01  2.04516e-01 -9.33396e-02
       H -1.67152e+00  8.88794e-03 -2.73408e-01
       H -4.75473e-01 -7.73203e-01  6.40840e-01
       L -1.45705e-01  4.53570e-01  5.57796e-01
       L  3.12502e+00  3.31303e-01  1.02222e+00
6
# CELL(abcABC):  459.05226   459.05226   459.05226    90.00000    90.00000    90.00000  Step:          37  Bead:       0 x_centroid{angstrom}  cell{atomic_unit}
       C -2.89461e-01  1.51933e-02 -5.90747e-02
       O  9.04144e-01  2.04981e-01 -9.40590e-02
       H -1.61650e+00  1.70590e-02 -2.81365e-01
       H -4.52455e-01 -7.83765e-01  6.58143e-01
       L -6.10321e-01  2.94450e-01  9.16488e-01
       L  3.53011e+00  5.19221e-01  1.01188e+00
6
# CELL(abcABC):  459.05226   459.05226   459.05226    90.00000    90.00000    90.00000  Step:          38  Bead:       0 x_centroid{angstrom}  cell{atomic_unit}
       C -2.99659e-01  1.39259e-02 -5.82339e-02
       O  9.06358e-01  2.05836e-01 -9.51200e-02
       H -1.55154e+00  3.06061e-02 -2.92903e-01
       H -4.31011e-01 -7.95829e-01  6.76367e-01
       L -1.07563e+00  1.97281e-01  1.23070e+00
       L  3.96028e+00  6.93152e-01  9.49066e-01
6
# CELL(abcABC):  459.05226   459.05226   459.05226    90.00000    90.00000    90.00000  Step:          39  Bead:       0 x_centroid{angstrom}  cell{atomic_unit}
       C -3.10059e-01  1.18791e-02 -5.63253e-02
       O  9.08304e-01  2.06945e-01 -9.68265e-02
       H -1.47750e+00  4.92855e-02 -3.07627e-01
       H -4.12025e-01 -8.07757e-01  6.95307e-01
       L -1.46812e+00  1.04441e-01  1.53082e+00
       L  4.35450e+00  8.62837e-01  8.82395e-01
6
# CELL(abcABC):  459.05226   459.05226   459.05226    90.00000    90.00000    90.00000  Step:          40  Bead:       0 x_centroid{angstrom}  cell{atomic_unit}
       C -3.20015e-01  9.05106e-03 -5.30917e-02
       O  9.09636e-01  2.08349e-01 -9.92922e-02
       H -1.39786e+00  7.20635e-02 -3.25681e-01
       H -3.94154e-01 -8.19189e-01  7.13853e-01
       L -1.82939e+00  4.76844e-02  1.78957e+00
       L  4.69666e+00  1.04140e+00  8.36351e-01
6
# CELL(abcABC):  459.05226   459.05226   459.05226    90.00000    90.00000    90.00000  Step:          41  Bead:       0 x_centroid{angstrom}  cell{atomic_unit}
       C -3.29008e-01  5.49613e-03 -4.85612e-02
       O  9.10167e-01  2.09905e-01 -1.02321e-01
       H -1.31455e+00  9.93517e-02 -3.48939e-01
       H -3.78676e-01 -8.28859e-01  7.31110e-01
       L -2.21859e+00 -3.15120e-02  2.03328e+00
       L  4.97615e+00  1.20798e+00  7.62419e-01
6
# CELL(abcABC):  459.05226   459.05226   459.05226    90.00000    90.00000    90.00000  Step:          42  Bead:       0 x_centroid{angstrom}  cell{atomic_unit}
       C -3.36476e-01  8.89417e-04 -4.28426e-02
       O  9.09975e-01  2.11750e-01 -1.05805e-01
       H -1.23490e+00  1.32466e-01 -3.77199e-01
       H -3.66257e-01 -8.36368e-01  7.46448e-01
       L -2.53506e+00 -1.32611e-01  2.26149e+00
       L  5.23055e+00  1.31551e+00  6.90039e-01
6
# CELL(abcABC):  459.05226   459.05226   459.05226    90.00000    90.00000    90.00000  Step:          43  Bead:       0 x_centroid{angstrom}  cell{atomic_unit}
       C -3.41216e-01 -4.72185e-03 -3.57043e-02
       O  9.08766e-01  2.13701e-01 -1.09636e-01
       H -1.16736e+00  1.72188e-01 -4.14588e-01
       H -3.58122e-01 -8.40254e-01  7.59518e-01
       L -2.79668e+00 -1.42332e-01  2.44145e+00
       L  5.49324e+00  1.41749e+00  6.25430e-01
6
# CELL(abcABC):  459.05226   459.05226   459.05226    90.00000    90.00000    90.00000  Step:          44  Bead:       0 x_centroid{angstrom}  cell{atomic_unit}
       C -3.42826e-01 -1.14925e-02 -2.71708e-02
       O  9.06560e-01  2.15837e-01 -1.13634e-01
       H -1.11695e+00  2.19611e-01 -4.64062e-01
       H -3.54352e-01 -8.40982e-01  7.70752e-01
       L -2.99002e+00 -1.27153e-01  2.55501e+00
       L  5.73068e+00  1.55722e+00  5.46008e-01
6
# CELL(abcABC):  459.05226   459.05226   459.05226    90.00000    90.00000    90.00000  Step:          45  Bead:       0 x_centroid{angstrom}  cell{atomic_unit}
       C -3.41203e-01 -1.92607e-02 -1.68776e-02
       O  9.03310e-01  2.17935e-01 -1.17957e-01
       H -1.08438e+00  2.76152e-01 -5.26962e-01
       H -3.54661e-01 -8.38340e-01  7.79610e-01
       L -3.16419e+00 -8.75917e-02  2.68033e+00
       L  5.87264e+00  1.66108e+00  4.30872e-01
6
# CELL(abcABC):  459.05226   459.05226   459.05226    90.00000    90.00000    90.00000  Step:          46  Bead:       0 x_centroid{angstrom}  cell{atomic_unit}
       C -3.37098e-01 -2.80560e-02 -5.04281e-03
       O  8.99321e-01  2.20057e-01 -1.22557e-01
       H -1.06535e+00  3.39984e-01 -5.99849e-01
       H -3.59207e-01 -8.31137e-01  7.84509e-01
       L -3.37684e+00 -5.14368e-02  2.77849e+00
       L  5.92583e+00  1.77831e+00  3.10651e-01
6
# CELL(abcABC):  459.05226   459.05226   459.05226    90.00000    90.00000    90.00000  Step:          47  Bead:       0 x_centroid{angstrom}  cell{atomic_unit}
       C -3.31111e-01 -3.74944e-02  7.76203e-03
       O  8.94578e-01  2.22336e-01 -1.27416e-01
       H -1.05230e+00  4.06142e-01 -6.77181e-01
       H -3.68252e-01 -8.21002e-01  7.86395e-01
       L -3.53209e+00 -9.32485e-02  2.87010e+00
       L  5.98063e+00  1.83361e+00  1.89585e-01
6
# CELL(abcABC):  459.05226   459.05226   459.05226    90.00000    90.00000    90.00000  Step:          48  Bead:       0 x_centroid{angstrom}  cell{atomic_unit}
       C -3.23447e-01 -4.69894e-02  2.04815e-02
       O  8.89065e-01  2.24635e-01 -1.32257e-01
       H -1.04077e+00  4.70954e-01 -7.52266e-01
       H -3.83536e-01 -8.09192e-01  7.86742e-01
       L -3.64755e+00 -1.15718e-01  2.91698e+00
       L  5.99275e+00  1.89395e+00  1.64728e-01
6
# CELL(abcABC):  459.05226   459.05226   459.05226    90.00000    90.00000    90.00000  Step:          49  Bead:       0 x_centroid{angstrom}  cell{atomic_unit}
       C -3.14562e-01 -5.60527e-02  3.22501e-02
       O  8.82825e-01  2.26916e-01 -1.36866e-01
       H -1.02779e+00  5.31879e-01 -8.20057e-01
       H -4.03320e-01 -7.98334e-01  7.87498e-01
       L -3.71248e+00 -1.38016e-01  2.92496e+00
       L  6.01613e+00  1.94005e+00  1.05548e-01
6
# CELL(abcABC):  459.05226   459.05226   459.05226    90.00000    90.00000    90.00000  Step:          50  Bead:       0 x_centroid{angstrom}  cell{atomic_unit}
       C -3.04825e-01 -6.44141e-02  4.32259e-02
       O  8.76141e-01  2.29196e-01 -1.41590e-01
       H -1.01251e+00  5.85848e-01 -8.79549e-01
       H -4.28503e-01 -7.88832e-01  7.91257e-01
       L -3.77248e+00 -1.71024e-01  2.82412e+00
       L  6.02684e+00  1.92255e+00  6.13737e-02
6
# CELL(abcABC):  459.05226   459.05226   459.05226    90.00000    90.00000    90.00000  Step:          51  Bead:       0 x_centroid{angstrom}  cell{atomic_unit}
       C -2.94140e-01 -7.16671e-02  5.29382e-02
       O  8.68937e-01  2.31217e-01 -1.46124e-01
       H -9.95698e-01  6.33770e-01 -9.29188e-01
       H -4.58284e-01 -7.82354e-01  7.97191e-01
       L -3.76206e+00 -2.19272e-01  2.72274e+00
       L  5.99368e+00  1.88136e+00  5.49626e-02
6
# CELL(abcABC):  459.05226   459.05226   459.05226    90.00000    90.00000    90.00000  Step:          52  Bead:       0 x_centroid{angstrom}  cell{atomic_unit}
       C -2.82644e-01 -7.78124e-02  6.11344e-02
       O  8.61258e-01  2.33158e-01 -1.50362e-01
       H -9.76457e-01  6.73554e-01 -9.68207e-01
       H -4.92614e-01 -7.79658e-01  8.05910e-01
       L -3.71526e+00 -2.18051e-01  2.59061e+00
       L  5.95396e+00  1.77846e+00  1.41679e-02
6
# CELL(abcABC):  459.05226   459.05226   459.05226    90.00000    90.00000    90.00000  Step:          53  Bead:       0 x_centroid{angstrom}  cell{atomic_unit}
       C -2.70565e-01 -8.25909e-02  6.81153e-02
       O  8.53303e-01  2.34791e-01 -1.54438e-01
       H -9.55987e-01  7.05330e-01 -9.98113e-01
       H -5.30696e-01 -7.80337e-01  8.17408e-01
       L -3.72458e+00 -2.21309e-01  2.49889e+00
       L  5.87290e+00  1.64044e+00 -4.38915e-02
6
# CELL(abcABC):  459.05226   459.05226   459.05226    90.00000    90.00000    90.00000  Step:          54  Bead:       0 x_centroid{angstrom}  cell{atomic_unit}
       C -2.58231e-01 -8.64143e-02  7.42266e-02
       O  8.45195e-01  2.36195e-01 -1.58520e-01
       H -9.34512e-01  7.29480e-01 -1.01901e+00
       H -5.70402e-01 -7.81146e-01  8.30388e-01
       L -3.66966e+00 -2.54535e-01  2.35764e+00
       L  5.74443e+00  1.52536e+00 -9.33247e-02
6
# CELL(abcABC):  459.05226   459.05226   459.05226    90.00000    90.00000    90.00000  Step:          55  Bead:       0 x_centroid{angstrom}  cell{atomic_unit}
       C -2.46314e-01 -8.95889e-02  7.91471e-02
       O  8.37561e-01  2.37624e-01 -1.62285e-01
       H -9.14004e-01  7.45130e-01 -1.03045e+00
       H -6.11653e-01 -7.81601e-01  8.43072e-01
       L -3.61275e+00 -2.57119e-01  2.21388e+00
       L  5.51342e+00  1.45969e+00 -1.48565e-01
6
# CELL(abcABC):  459.05226   459.05226   459.05226    90.00000    90.00000    90.00000  Step:          56  Bead:       0 x_centroid{angstrom}  cell{atomic_unit}
       C -2.34924e-01 -9.21783e-02  8.31430e-02
       O  8.30497e-01  2.38969e-01 -1.65818e-01
       H -8.95420e-01  7.54443e-01 -1.03379e+00
       H -6.53725e-01 -7.81371e-01  8.54974e-01
       L -3.52611e+00 -2.65880e-01  2.07683e+00
       L  5.23857e+00  1.37448e+00 -2.22297e-01
6
# CELL(abcABC):  459.05226   459.05226   459.05226    90.00000    90.00000    90.00000  Step:          57  Bead:       0 x_centroid{angstrom}  cell{atomic_unit}
       C -2.24721e-01 -9.40572e-02  8.59348e-02
       O  8.24347e-01  2.40152e-01 -1.68945e-01
       H -8.77877e-01  7.56818e-01 -1.02773e+00
       H -6.95107e-01 -7.80069e-01  8.65409e-01
       L -3.44503e+00 -2.50502e-01  1.95128e+00
       L  4.93286e+00  1.25251e+00 -3.22221e-01
6
# CELL(abcABC):  459.05226   459.05226   459.05226    90.00000    90.00000    90.00000  Step:          58  Bead:       0 x_centroid{angstrom}  cell{atomic_unit}
       C -2.15624e-01 -9.54510e-02  8.82762e-02
       O  8.19176e-01  2.41335e-01 -1.72075e-01
       H -8.63281e-01  7.51676e-01 -1.01271e+00
       H -7.35920e-01 -7.77018e-01  8.72310e-01
       L -3.30143e+00 -2.51959e-01  1.75846e+00
       L  4.60466e+00  1.10960e+00 -3.72771e-01
6
# CELL(abcABC):  459.05226   459.05226   459.05226    90.00000    90.00000    90.00000  Step:          59  Bead:       0 x_centroid{angstrom}  cell{atomic_unit}
       C -2.07990e-01 -9.64864e-02  8.99877e-02
       O  8.15174e-01  2.42611e-01 -1.74948e-01
       H -8.52111e-01  7.39449e-01 -9.89808e-01
       H -7.74457e-01 -7.72618e-01  8.74734e-01
       L -3.07467e+00 -2.54245e-01  1.57463e+00
       L  4.25045e+00  9.54547e-01 -3.85165e-01
6
# CELL(abcABC):  459.05226   459.05226   459.05226    90.00000    90.00000    90.00000  Step:          60  Bead:       0 x_centroid{angstrom}  cell{atomic_unit}
       C -2.02494e-01 -9.69739e-02  9.12449e-02
       O  8.12580e-01  2.43688e-01 -1.77708e-01
       H -8.42576e-01  7.20633e-01 -9.59454e-01
       H -8.08260e-01 -7.65028e-01  8.73316e-01
       L -2.80422e+00 -2.46547e-01  1.38380e+00
       L  3.88515e+00  8.33336e-01 -4.00150e-01
6
# CELL(abcABC):  459.05226   459.05226   459.05226    90.00000    90.00000    90.00000  Step:          61  Bead:       0 x_centroid{angstrom}  cell{atomic_unit}
       C -1.99161e-01 -9.70971e-02  9.18522e-02
       O  8.11485e-01  2.44682e-01 -1.80146e-01
       H -8.35192e-01  6.95791e-01 -9.20740e-01
       H -8.37943e-01 -7.54436e-01  8.66169e-01
       L -2.51985e+00 -2.37571e-01  1.18940e+00
       L  3.54053e+00  7.16855e-01 -3.97179e-01
6
# CELL(abcABC):  459.05226   459.05226   459.05226    90.00000    90.00000    90.00000  Step:          62  Bead:       0 x_centroid{angstrom}  cell{atomic_unit}
       C -1.98269e-01 -9.68567e-02  9.15198e-02
       O  8.12097e-01  2.45743e-01 -1.82168e-01
       H -8.31241e-01  6.62192e-01 -8.74323e-01
       H -8.62242e-01 -7.40522e-01  8.55879e-01
       L -2.17551e+00 -2.21138e-01  9.99579e-01
       L  3.18424e+00  6.52128e-01 -3.45150e-01
6
# CELL(abcABC):  459.05226   459.05226   459.05226    90.00000    90.00000    90.00000  Step:          63  Bead:       0 x_centroid{angstrom}  cell{atomic_unit}
       C -1.99877e-01 -9.61199e-02  9.04016e-02
       O  8.14392e-01  2.46730e-01 -1.83831e-01
       H -8.30622e-01  6.20848e-01 -8.21070e-01
       H -8.80102e-01 -7.23597e-01  8.42406e-01
       L -1.78954e+00 -1.88875e-01  8.20224e-01
       L  2.78376e+00  5.69532e-01 -2.79542e-01
6
# CELL(abcABC):  459.05226   459.05226   459.05226    90.00000    90.00000    90.00000  Step:          64  Bead:       0 x_centroid{angstrom}  cell{atomic_unit}
       C -2.04031e-01 -9.50427e-02  8.86879e-02
       O  8.18361e-01  2.47712e-01 -1.85279e-01
       H -8.32831e-01  5.72958e-01 -7.62812e-01
       H -8.91381e-01 -7.04083e-01  8.27633e-01
       L -1.43681e+00 -1.47636e-01  6.08985e-01
       L  2.40009e+00  4.53041e-01 -2.08604e-01
6
# CELL(abcABC):  459.05226   459.05226   459.05226    90.00000    90.00000    90.00000  Step:          65  Bead:       0 x_centroid{angstrom}  cell{atomic_unit}
       C -2.10486e-01 -9.36529e-02  8.63293e-02
       O  8.23908e-01  2.48679e-01 -1.86494e-01
       H -8.39128e-01  5.20004e-01 -6.98514e-01
       H -8.96230e-01 -6.82976e-01  8.10810e-01
       L -1.03045e+00 -1.19724e-01  3.61601e-01
       L  2.02905e+00  2.85147e-01 -1.07074e-01
6
# CELL(abcABC):  459.05226   459.05226   459.05226    90.00000    90.00000    90.00000  Step:          66  Bead:       0 x_centroid{angstrom}  cell{atomic_unit}
       C -2.18833e-01 -9.20759e-02  8.35926e-02