6
# CELL(abcABC):  459.05226   459.05226   459.05226    90.00000    90.00000    90.00000  Step:           0  Bead:       0 x_centroid{angstrom}  cell{atomic_unit}
       C -3.39887e-01 -1.13437e-01  8.06659e-02
       O  8.43483e-01  2.62672e-01 -1.81512e-01
       H -7.35799e-02  8.16467e-01 -6.61432e-01
       H -4.30016e-01 -9.65701e-01  7.62278e-01
       L  0.00000e+00  0.00000e+00  0.00000e+00
       L  0.00000e+00  0.00000e+00  0.00000e+00
6
# CELL(abcABC):  459.05226   459.05226   459.05226    90.00000    90.00000    90.00000  Step:           1  Bead:       0 x_centroid{angstrom}  cell{atomic_unit}
       C -3.38091e-01 -1.14278e-01  7.97564e-02
       O  8.41749e-01  2.63299e-01 -1.80910e-01
       H -6.92927e-02  8.25386e-01 -6.59253e-01
       H -4.28004e-01 -9.74600e-01  7.61548e-01
       L -3.96583e-01 -2.14976e-02  6.83384e-02
       L  6.87392e-02  8.01815e-02 -3.89649e-01
6
# CELL(abcABC):  459.05226   459.05226   459.05226    90.00000    90.00000    90.00000  Step:           2  Bead:       0 x_centroid{angstrom}  cell{atomic_unit}
       C -3.36137e-01 -1.15002e-01  7.88788e-02
       O  8.39808e-01  2.63892e-01 -1.80302e-01
       H -6.43877e-02  8.33517e-01 -6.57250e-01
       H -4.25202e-01 -9.83549e-01  7.60509e-01
       L -7.85422e-01 -8.36538e-02  1.84936e-01
       L  1.42611e-01  2.09387e-01 -8.05224e-01
6
# CELL(abcABC):  459.05226   459.05226   459.05226    90.00000    90.00000    90.00000  Step:           3  Bead:       0 x_centroid{angstrom}  cell{atomic_unit}
       C -3.34229e-01 -1.15723e-01  7.83503e-02
       O  8.37835e-01  2.64577e-01 -1.79921e-01
       H -5.81728e-02  8.40235e-01 -6.54983e-01
       H -4.22697e-01 -9.92571e-01  7.58663e-01
       L -1.17771e+00 -1.24458e-01  2.56162e-01
       L  2.73685e-01  3.01791e-01 -1.17240e+00
6
# CELL(abcABC):  459.05226   459.05226   459.05226    90.00000    90.00000    90.00000  Step:           4  Bead:       0 x_centroid{angstrom}  cell{atomic_unit}
       C -3.32640e-01 -1.16832e-01  7.80696e-02
       O  8.35993e-01  2.65503e-01 -1.79740e-01
       H -5.09659e-02  8.47177e-01 -6.51615e-01
       H -4.19462e-01 -1.00098e+00  7.55921e-01
       L -1.52121e+00 -2.07610e-01  3.31973e-01
       L  3.51973e-01  3.33721e-01 -1.54705e+00
6
# CELL(abcABC):  459.05226   459.05226   459.05226    90.00000    90.00000    90.00000  Step:           5  Bead:       0 x_centroid{angstrom}  cell{atomic_unit}
       C -3.31293e-01 -1.18309e-01  7.80574e-02
       O  8.34219e-01  2.66648e-01 -1.79741e-01
       H -4.21048e-02  8.53264e-01 -6.46941e-01
       H -4.16064e-01 -1.00761e+00  7.51573e-01
       L -1.86754e+00 -3.06866e-01  4.15832e-01
       L  4.24095e-01  3.93644e-01 -1.91542e+00
6
# CELL(abcABC):  459.05226   459.05226   459.05226    90.00000    90.00000    90.00000  Step:           6  Bead:       0 x_centroid{angstrom}  cell{atomic_unit}
       C -3.30207e-01 -1.20176e-01  7.78523e-02
       O  8.32396e-01  2.68012e-01 -1.79442e-01
       H -3.04270e-02  8.59135e-01 -6.41952e-01
       H -4.11632e-01 -1.01287e+00  7.44409e-01
       L -2.14983e+00 -4.47048e-01  5.10098e-01
       L  5.13387e-01  4.97050e-01 -2.26638e+00
6
# CELL(abcABC):  459.05226   459.05226   459.05226    90.00000    90.00000    90.00000  Step:           7  Bead:       0 x_centroid{angstrom}  cell{atomic_unit}
       C -3.29676e-01 -1.22343e-01  7.79969e-02
       O  8.30645e-01  2.69686e-01 -1.79408e-01
       H -1.56558e-02  8.63228e-01 -6.36181e-01
       H -4.04860e-01 -1.01769e+00  7.36511e-01
       L -2.40780e+00 -6.03650e-01  5.88062e-01
       L  6.26228e-01  6.02285e-01 -2.57314e+00
6
# CELL(abcABC):  459.05226   459.05226   459.05226    90.00000    90.00000    90.00000  Step:           8  Bead:       0 x_centroid{angstrom}  cell{atomic_unit}
       C -3.29628e-01 -1.24702e-01  7.87385e-02
       O  8.29005e-01  2.71520e-01 -1.79698e-01
       H  2.68229e-03  8.67486e-01 -6.31022e-01
       H -3.97671e-01 -1.02293e+00  7.27260e-01
       L -2.64303e+00 -7.65813e-01  6.16023e-01
       L  7.44083e-01  7.44384e-01 -2.85968e+00
6
# CELL(abcABC):  459.05226   459.05226   459.05226    90.00000    90.00000    90.00000  Step:           9  Bead:       0 x_centroid{angstrom}  cell{atomic_unit}
       C -3.30108e-01 -1.27572e-01  7.96292e-02
       O  8.27453e-01  2.73732e-01 -1.80101e-01
       H  2.46885e-02  8.72556e-01 -6.25430e-01
       H -3.89299e-01 -1.02891e+00  7.17535e-01
       L -2.82446e+00 -9.28362e-01  6.63207e-01
       L  8.82117e-01  9.07115e-01 -3.08277e+00
6
# CELL(abcABC):  459.05226   459.05226   459.05226    90.00000    90.00000    90.00000  Step:          10  Bead:       0 x_centroid{angstrom}  cell{atomic_unit}
       C -3.31297e-01 -1.30756e-01  8.08679e-02
       O  8.25869e-01  2.76135e-01 -1.80758e-01
       H  5.33869e-02  8.78206e-01 -6.20183e-01
       H -3.78643e-01 -1.03477e+00  7.08082e-01
       L -3.02561e+00 -1.03988e+00  6.46552e-01
       L  1.00881e+00  1.02843e+00 -3.27540e+00
6
# CELL(abcABC):  459.05226   459.05226   459.05226    90.00000    90.00000    90.00000  Step:          11  Bead:       0 x_centroid{angstrom}  cell{atomic_unit}
       C -3.33056e-01 -1.34171e-01  8.24801e-02
       O  8.24224e-01  2.78715e-01 -1.81737e-01
       H  8.82182e-02  8.84640e-01 -6.14730e-01
       H -3.66340e-01 -1.04149e+00  6.99074e-01
       L -3.17421e+00 -1.10480e+00  5.94836e-01
       L  1.02206e+00  1.12086e+00 -3.44732e+00
6
# CELL(abcABC):  459.05226   459.05226   459.05226    90.00000    90.00000    90.00000  Step:          12  Bead:       0 x_centroid{angstrom}  cell{atomic_unit}
       C -3.35461e-01 -1.38109e-01  8.43672e-02
       O  8.22452e-01  2.81623e-01 -1.82853e-01
       H  1.29901e-01  8.92865e-01 -6.10201e-01
       H -3.51192e-01 -1.04898e+00  6.89912e-01
       L -3.25521e+00 -1.13911e+00  5.09758e-01
       L  1.01734e+00  1.21552e+00 -3.62312e+00
6
# CELL(abcABC):  459.05226   459.05226   459.05226    90.00000    90.00000    90.00000  Step:          13  Bead:       0 x_centroid{angstrom}  cell{atomic_unit}
       C -3.38710e-01 -1.42415e-01  8.66151e-02
       O  8.20558e-01  2.84612e-01 -1.84126e-01
       H  1.81339e-01  9.04660e-01 -6.07932e-01
       H -3.33789e-01 -1.05688e+00  6.81217e-01
       L -3.34757e+00 -1.24328e+00  3.57952e-01
       L  1.01990e+00  1.29805e+00 -3.73728e+00
6
# CELL(abcABC):  459.05226   459.05226   459.05226    90.00000    90.00000    90.00000  Step:          14  Bead:       0 x_centroid{angstrom}  cell{atomic_unit}
       C -3.42364e-01 -1.47107e-01  8.93348e-02
       O  8.18469e-01  2.87718e-01 -1.85693e-01
       H  2.40642e-01  9.20483e-01 -6.09082e-01
       H -3.16404e-01 -1.06609e+00  6.74983e-01
       L -3.41558e+00 -1.36761e+00  1.83846e-01
       L  1.09638e+00  1.38256e+00 -3.84091e+00
6
# CELL(abcABC):  459.05226   459.05226   459.05226    90.00000    90.00000    90.00000  Step:          15  Bead:       0 x_centroid{angstrom}  cell{atomic_unit}
       C -3.46736e-01 -1.52251e-01  9.26837e-02
       O  8.16386e-01  2.90933e-01 -1.87638e-01
       H  3.06826e-01  9.41389e-01 -6.13078e-01
       H -2.97448e-01 -1.07669e+00  6.70090e-01
       L -3.42372e+00 -1.47821e+00 -2.01655e-02
       L  1.14280e+00  1.44610e+00 -3.90062e+00
6
# CELL(abcABC):  459.05226   459.05226   459.05226    90.00000    90.00000    90.00000  Step:          16  Bead:       0 x_centroid{angstrom}  cell{atomic_unit}
       C -3.51300e-01 -1.58171e-01  9.62903e-02
       O  8.14022e-01  2.94298e-01 -1.89556e-01
       H  3.77170e-01  9.69338e-01 -6.21624e-01
       H -2.75966e-01 -1.08747e+00  6.66201e-01
       L -3.35592e+00 -1.55478e+00 -1.93242e-01
       L  1.23651e+00  1.43332e+00 -3.91611e+00
6
# CELL(abcABC):  459.05226   459.05226   459.05226    90.00000    90.00000    90.00000  Step:          17  Bead:       0 x_centroid{angstrom}  cell{atomic_unit}
       C -3.56468e-01 -1.64433e-01  1.00226e-01
       O  8.11815e-01  2.97539e-01 -1.91441e-01
       H  4.50640e-01  1.00408e+00 -6.35557e-01
       H -2.52919e-01 -1.09902e+00  6.63269e-01
       L -3.26166e+00 -1.58242e+00 -3.83994e-01
       L  1.33826e+00  1.40244e+00 -3.92237e+00
6
# CELL(abcABC):  459.05226   459.05226   459.05226    90.00000    90.00000    90.00000  Step:          18  Bead:       0 x_centroid{angstrom}  cell{atomic_unit}
       C -3.61970e-01 -1.70887e-01  1.04293e-01
       O  8.09605e-01  3.00563e-01 -1.93194e-01
       H  5.25654e-01  1.04453e+00 -6.55166e-01
       H -2.27428e-01 -1.11056e+00  6.62312e-01
       L -3.17467e+00 -1.56163e+00 -5.58298e-01
       L  1.46520e+00  1.39764e+00 -3.87504e+00
6
# CELL(abcABC):  459.05226   459.05226   459.05226    90.00000    90.00000    90.00000  Step:          19  Bead:       0 x_centroid{angstrom}  cell{atomic_unit}
       C -3.67466e-01 -1.77491e-01  1.08400e-01
       O  8.07192e-01  3.03221e-01 -1.94846e-01
       H  6.02960e-01  1.09005e+00 -6.76964e-01
       H -2.01034e-01 -1.11963e+00  6.61443e-01
       L -3.09459e+00 -1.50889e+00 -7.42484e-01
       L  1.56713e+00  1.45059e+00 -3.79605e+00
6
# CELL(abcABC):  459.05226   459.05226   459.05226    90.00000    90.00000    90.00000  Step:          20  Bead:       0 x_centroid{angstrom}  cell{atomic_unit}
       C -3.72825e-01 -1.84114e-01  1.12695e-01
       O  8.04477e-01  3.05825e-01 -1.96487e-01
       H  6.82572e-01  1.13566e+00 -7.00236e-01
       H -1.73808e-01 -1.12767e+00  6.59631e-01
       L -2.98541e+00 -1.47622e+00 -9.07614e-01
       L  1.67090e+00  1.44197e+00 -3.69863e+00
6
# CELL(abcABC):  459.05226   459.05226   459.05226    90.00000    90.00000    90.00000  Step:          21  Bead:       0 x_centroid{angstrom}  cell{atomic_unit}
       C -3.78060e-01 -1.90865e-01  1.17001e-01
       O  8.01555e-01  3.08689e-01 -1.98247e-01
       H  7.62586e-01  1.17687e+00 -7.22690e-01
       H -1.45160e-01 -1.13392e+00  6.58695e-01
       L -2.81837e+00 -1.42431e+00 -1.05028e+00
       L  1.71940e+00  1.42863e+00 -3.52790e+00
6
# CELL(abcABC):  459.05226   459.05226   459.05226    90.00000    90.00000    90.00000  Step:          22  Bead:       0 x_centroid{angstrom}  cell{atomic_unit}
       C -3.83228e-01 -1.97531e-01  1.21236e-01
       O  7.98675e-01  3.11741e-01 -2.00089e-01
       H  8.42136e-01  1.21180e+00 -7.42050e-01
       H -1.17594e-01 -1.13789e+00  6.56784e-01
       L -2.60526e+00 -1.34168e+00 -1.16525e+00
       L  1.81907e+00  1.38370e+00 -3.33446e+00
6
# CELL(abcABC):  459.05226   459.05226   459.05226    90.00000    90.00000    90.00000  Step:          23  Bead:       0 x_centroid{angstrom}  cell{atomic_unit}
       C -3.88406e-01 -2.03914e-01  1.25299e-01
       O  7.95903e-01  3.15039e-01 -2.02101e-01
       H  9.19202e-01  1.23741e+00 -7.55690e-01
       H -8.91284e-02 -1.13981e+00  6.53868e-01
       L -2.37123e+00 -1.25676e+00 -1.25915e+00
       L  1.89920e+00  1.34090e+00 -3.10301e+00
6
# CELL(abcABC):  459.05226   459.05226   459.05226    90.00000    90.00000    90.00000  Step:          24  Bead:       0 x_centroid{angstrom}  cell{atomic_unit}
       C -3.93504e-01 -2.09954e-01  1.29291e-01
       O  7.93256e-01  3.18639e-01 -2.04319e-01
       H  9.92560e-01  1.25371e+00 -7.63671e-01
       H -5.98887e-02 -1.14135e+00  6.49395e-01
       L -2.09143e+00 -1.14038e+00 -1.32835e+00
       L  1.91420e+00  1.37051e+00 -2.85800e+00
6
# CELL(abcABC):  459.05226   459.05226   459.05226    90.00000    90.00000    90.00000  Step:          25  Bead:       0 x_centroid{angstrom}  cell{atomic_unit}
       C -3.98089e-01 -2.15359e-01  1.33293e-01
       O  7.90773e-01  3.22357e-01 -2.06865e-01
       H  1.05905e+00  1.25907e+00 -7.67051e-01
       H -3.24265e-02 -1.14140e+00  6.45401e-01
       L -1.84832e+00 -1.04091e+00 -1.42242e+00
       L  1.86479e+00  1.39339e+00 -2.59774e+00
6
# CELL(abcABC):  459.05226   459.05226   459.05226    90.00000    90.00000    90.00000  Step:          26  Bead:       0 x_centroid{angstrom}  cell{atomic_unit}
       C -4.02386e-01 -2.20640e-01  1.36866e-01
       O  7.88549e-01  3.26489e-01 -2.09515e-01
       H  1.11858e+00  1.25435e+00 -7.63704e-01
       H -5.58919e-03 -1.13938e+00  6.41398e-01
       L -1.57886e+00 -9.21064e-01 -1.43068e+00
       L  1.84682e+00  1.35643e+00 -2.31251e+00
6
# CELL(abcABC):  459.05226   459.05226   459.05226    90.00000    90.00000    90.00000  Step:          27  Bead:       0 x_centroid{angstrom}  cell{atomic_unit}
       C -4.06337e-01 -2.25728e-01  1.40510e-01
       O  7.86674e-01  3.31121e-01 -2.12505e-01
       H  1.16901e+00  1.23870e+00 -7.54298e-01
       H  2.06606e-02 -1.13667e+00  6.35863e-01
       L -1.24820e+00 -8.06527e-01 -1.40092e+00
       L  1.80344e+00  1.33021e+00 -2.02453e+00
6
# CELL(abcABC):  459.05226   459.05226   459.05226    90.00000    90.00000    90.00000  Step:          28  Bead:       0 x_centroid{angstrom}  cell{atomic_unit}
       C -4.09876e-01 -2.30600e-01  1.43822e-01
       O  7.85122e-01  3.36073e-01 -2.15535e-01
       H  1.20999e+00  1.21355e+00 -7.39309e-01
       H  4.63787e-02 -1.13218e+00  6.29313e-01
       L -9.58320e-01 -6.47159e-01 -1.31332e+00
       L  1.72865e+00  1.33974e+00 -1.75743e+00
6
# CELL(abcABC):  459.05226   459.05226   459.05226    90.00000    90.00000    90.00000  Step:          29  Bead:       0 x_centroid{angstrom}  cell{atomic_unit}
       C -4.12769e-01 -2.35194e-01  1.46706e-01
       O  7.83816e-01  3.41316e-01 -2.18612e-01
       H  1.24072e+00  1.17958e+00 -7.18467e-01
       H  7.07652e-02 -1.12679e+00  6.22720e-01
       L -6.75542e-01 -4.58036e-01 -1.20788e+00
       L  1.59409e+00  1.35980e+00 -1.47340e+00
6
# CELL(abcABC):  459.05226   459.05226   459.05226    90.00000    90.00000    90.00000  Step:          30  Bead:       0 x_centroid{angstrom}  cell{atomic_unit}
       C -4.15220e-01 -2.39639e-01  1.49280e-01
       O  7.82977e-01  3.46762e-01 -2.21732e-01
       H  1.26178e+00  1.13995e+00 -6.92666e-01
       H  9.21707e-02 -1.12075e+00  6.15559e-01
       L -3.87047e-01 -2.77365e-01 -1.11184e+00
       L  1.43715e+00  1.38844e+00 -1.15738e+00
6
# CELL(abcABC):  459.05226   459.05226   459.05226    90.00000    90.00000    90.00000  Step:          31  Bead:       0 x_centroid{angstrom}  cell{atomic_unit}
       C -4.16764e-01 -2.43459e-01  1.51682e-01
       O  7.82228e-01  3.51989e-01 -2.24910e-01
       H  1.27371e+00  1.09562e+00 -6.63487e-01
       H  1.10472e-01 -1.11403e+00  6.07951e-01
       L -1.44499e-01 -6.22288e-02 -1.01277e+00
       L  1.28972e+00  1.47891e+00 -7.88118e-01
6
# CELL(abcABC):  459.05226   459.05226   459.05226    90.00000    90.00000    90.00000  Step:          32  Bead:       0 x_centroid{angstrom}  cell{atomic_unit}
       C -4.17425e-01 -2.46829e-01  1.53846e-01
       O  7.81459e-01  3.57043e-01 -2.28020e-01
       H  1.27727e+00  1.04890e+00 -6.32312e-01
       H  1.26937e-01 -1.10753e+00  6.00104e-01
       L  9.05141e-02  1.07340e-01 -9.13210e-01
       L  1.15064e+00  1.55544e+00 -4.28793e-01
6
# CELL(abcABC):  459.05226   459.05226   459.05226    90.00000    90.00000    90.00000  Step:          33  Bead:       0 x_centroid{angstrom}  cell{atomic_unit}
       C -4.17512e-01 -2.49880e-01  1.55790e-01
       O  7.80829e-01  3.61763e-01 -2.30898e-01
       H  1.27524e+00  1.00461e+00 -6.02650e-01
       H  1.40005e-01 -1.10197e+00  5.92744e-01
       L  2.90872e-01  3.18693e-01 -8.31289e-01
       L  9.47848e-01  1.64243e+00 -1.10715e-01
6
# CELL(abcABC):  459.05226   459.05226   459.05226    90.00000    90.00000    90.00000  Step:          34  Bead:       0 x_centroid{angstrom}  cell{atomic_unit}
       C -4.16974e-01 -2.52534e-01  1.57497e-01
       O  7.79882e-01  3.65579e-01 -2.33362e-01
       H  1.27404e+00  9.69215e-01 -5.78524e-01
       H  1.49872e-01 -1.09564e+00  5.87156e-01
       L  4.64119e-01  4.86624e-01 -7.63304e-01
       L  7.09473e-01  1.72023e+00  2.37170e-01
6
# CELL(abcABC):  459.05226   459.05226   459.05226    90.00000    90.00000    90.00000  Step:          35  Bead:       0 x_centroid{angstrom}  cell{atomic_unit}
       C -4.15392e-01 -2.54767e-01  1.58788e-01
       O  7.77965e-01  3.68123e-01 -2.35032e-01
       H  1.27909e+00  9.49265e-01 -5.62437e-01
       H  1.56441e-01 -1.08961e+00  5.81981e-01
       L  6.04594e-01  6.62861e-01 -7.09449e-01
       L  4.88310e-01  1.81591e+00  5.74947e-01
6
# CELL(abcABC):  459.05226   459.05226   459.05226    90.00000    90.00000    90.00000  Step:          36  Bead:       0 x_centroid{angstrom}  cell{atomic_unit}
       C -4.12864e-01 -2.56644e-01  1.59957e-01
       O  7.74971e-01  3.69282e-01 -2.36081e-01
       H  1.29413e+00  9.48977e-01 -5.56042e-01
       H  1.58879e-01 -1.08551e+00  5.78104e-01
       L  7.11734e-01  8.33567e-01 -6.32993e-01
       L  2.33711e-01  1.90568e+00  8.96193e-01
6
# CELL(abcABC):  459.05226   459.05226   459.05226    90.00000    90.00000    90.00000  Step:          37  Bead:       0 x_centroid{angstrom}  cell{atomic_unit}
       C -4.09767e-01 -2.58211e-01  1.61173e-01
       O  7.71087e-01  3.69189e-01 -2.36682e-01
       H  1.31838e+00  9.66285e-01 -5.58921e-01
       H  1.59470e-01 -1.08274e+00  5.75805e-01
       L  8.39265e-01  9.50645e-01 -5.03018e-01
       L -6.36828e-02  1.93416e+00  1.17970e+00
6
# CELL(abcABC):  459.05226   459.05226   459.05226    90.00000    90.00000    90.00000  Step:          38  Bead:       0 x_centroid{angstrom}  cell{atomic_unit}
       C -4.06293e-01 -2.59312e-01  1.61801e-01
       O  7.66755e-01  3.68081e-01 -2.36559e-01
       H  1.34782e+00  9.95882e-01 -5.67079e-01
       H  1.57510e-01 -1.08169e+00  5.74302e-01
       L  9.24664e-01  1.03221e+00 -3.78738e-01
       L -3.73751e-01  1.93806e+00  1.46380e+00
6
# CELL(abcABC):  459.05226   459.05226   459.05226    90.00000    90.00000    90.00000  Step:          39  Bead:       0 x_centroid{angstrom}  cell{atomic_unit}
       C -4.02405e-01 -2.59742e-01  1.61838e-01
       O  7.62377e-01  3.66307e-01 -2.35909e-01
       H  1.37513e+00  1.03086e+00 -5.78538e-01
       H  1.53549e-01 -1.08334e+00  5.74782e-01
       L  9.22400e-01  1.05214e+00 -2.26552e-01
       L -6.96225e-01  1.86949e+00  1.70345e+00
6
# CELL(abcABC):  459.05226   459.05226   459.05226    90.00000    90.00000    90.00000  Step:          40  Bead:       0 x_centroid{angstrom}  cell{atomic_unit}
       C -3.98021e-01 -2.60004e-01  1.61661e-01
       O  7.58120e-01  3.64579e-01 -2.35227e-01
       H  1.39607e+00  1.06646e+00 -5.89234e-01
       H  1.48137e-01 -1.08832e+00  5.76500e-01
       L  8.65968e-01  1.03561e+00 -2.20238e-02
       L -1.00879e+00  1.73074e+00  1.99741e+00
6
# CELL(abcABC):  459.05226   459.05226   459.05226    90.00000    90.00000    90.00000  Step:          41  Bead:       0 x_centroid{angstrom}  cell{atomic_unit}
       C -3.93312e-01 -2.59734e-01  1.61075e-01
       O  7.54157e-01  3.62872e-01 -2.34474e-01
       H  1.40911e+00  1.09805e+00 -5.98118e-01
       H  1.42122e-01 -1.09592e+00  5.80111e-01
       L  7.63368e-01  1.03243e+00  2.11258e-01
       L -1.30850e+00  1.54863e+00  2.30981e+00
6
# CELL(abcABC):  459.05226   459.05226   459.05226    90.00000    90.00000    90.00000  Step:          42  Bead:       0 x_centroid{angstrom}  cell{atomic_unit}
       C -3.88462e-01 -2.58937e-01  1.60351e-01
       O  7.50908e-01  3.61186e-01 -2.33959e-01
       H  1.41087e+00  1.12464e+00 -6.03601e-01
       H  1.34286e-01 -1.10518e+00  5.85800e-01
       L  7.01239e-01  1.03869e+00  4.28388e-01
       L -1.52587e+00  1.40598e+00  2.54297e+00
6
# CELL(abcABC):  459.05226   459.05226   459.05226    90.00000    90.00000    90.00000  Step:          43  Bead:       0 x_centroid{angstrom}  cell{atomic_unit}
       C -3.83284e-01 -2.57798e-01  1.59644e-01
       O  7.48182e-01  3.59751e-01 -2.33760e-01
       H  1.40159e+00  1.14540e+00 -6.06161e-01
       H  1.25257e-01 -1.11665e+00  5.93393e-01
       L  6.42451e-01  1.03861e+00  6.71411e-01
       L -1.69459e+00  1.26218e+00  2.74144e+00
6
# CELL(abcABC):  459.05226   459.05226   459.05226    90.00000    90.00000    90.00000  Step:          44  Bead:       0 x_centroid{angstrom}  cell{atomic_unit}
       C -3.77863e-01 -2.56171e-01  1.58378e-01
       O  7.46022e-01  3.58575e-01 -2.33428e-01
       H  1.38123e+00  1.15954e+00 -6.05299e-01
       H  1.15435e-01 -1.13144e+00  6.02080e-01
       L  5.78266e-01  1.02525e+00  9.49072e-01
       L -1.84619e+00  1.14483e+00  2.92245e+00
6
# CELL(abcABC):  459.05226   459.05226   459.05226    90.00000    90.00000    90.00000  Step:          45  Bead:       0 x_centroid{angstrom}  cell{atomic_unit}
       C -3.72010e-01 -2.54290e-01  1.56988e-01
       O  7.44308e-01  3.57785e-01 -2.33198e-01
       H  1.34953e+00  1.16628e+00 -6.01370e-01
       H  1.04688e-01 -1.14796e+00  6.10830e-01
       L  5.46860e-01  1.02487e+00  1.24874e+00
       L -2.01745e+00  9.78947e-01  3.06802e+00
6
# CELL(abcABC):  459.05226   459.05226   459.05226    90.00000    90.00000    90.00000  Step:          46  Bead:       0 x_centroid{angstrom}  cell{atomic_unit}
       C -3.66175e-01 -2.52119e-01  1.55523e-01
       O  7.43364e-01  3.57159e-01 -2.33192e-01
       H  1.30719e+00  1.16614e+00 -5.92334e-01
       H  9.26028e-02 -1.16366e+00  6.18906e-01
       L  5.03090e-01  1.00874e+00  1.57091e+00
       L -2.15371e+00  8.11230e-01  3.20267e+00
6
# CELL(abcABC):  459.05226   459.05226   459.05226    90.00000    90.00000    90.00000  Step:          47  Bead:       0 x_centroid{angstrom}  cell{atomic_unit}
       C -3.60331e-01 -2.49666e-01  1.53836e-01
       O  7.43099e-01  3.56674e-01 -2.33046e-01
       H  1.25471e+00  1.15845e+00 -5.80733e-01
       H  7.96982e-02 -1.17742e+00  6.24889e-01
       L  4.62818e-01  1.01736e+00  1.86534e+00
       L -2.23141e+00  6.77174e-01  3.26957e+00
6
# CELL(abcABC):  459.05226   459.05226   459.05226    90.00000    90.00000    90.00000  Step:          48  Bead:       0 x_centroid{angstrom}  cell{atomic_unit}
       C -3.54401e-01 -2.46824e-01  1.52099e-01
       O  7.43428e-01  3.56064e-01 -2.33005e-01
       H  1.19398e+00  1.14540e+00 -5.66229e-01
       H  6.45935e-02 -1.18848e+00  6.30261e-01
       L  4.48448e-01  1.00781e+00  2.11638e+00
       L -2.30522e+00  5.41602e-01  3.33580e+00
6
# CELL(abcABC):  459.05226   459.05226   459.05226    90.00000    90.00000    90.00000  Step:          49  Bead:       0 x_centroid{angstrom}  cell{atomic_unit}
       C -3.48476e-01 -2.44075e-01  1.50359e-01
       O  7.44184e-01  3.55442e-01 -2.33012e-01
       H  1.12724e+00  1.13205e+00 -5.50332e-01
       H  4.87182e-02 -1.19791e+00  6.35101e-01
       L  4.65261e-01  9.71169e-01  2.28239e+00
       L -2.28728e+00  3.90161e-01  3.39128e+00
6
# CELL(abcABC):  459.05226   459.05226   459.05226    90.00000    90.00000    90.00000  Step:          50  Bead:       0 x_centroid{angstrom}  cell{atomic_unit}
       C -3.42541e-01 -2.41039e-01  1.48524e-01
       O  7.45158e-01  3.54186e-01 -2.32592e-01
       H  1.05745e+00  1.12394e+00 -5.37944e-01
       H  3.23323e-02 -1.20597e+00  6.37815e-01
       L  4.69665e-01  9.53105e-01  2.44932e+00
       L -2.28632e+00  2.86466e-01  3.39960e+00
6
# CELL(abcABC):  459.05226   459.05226   459.05226    90.00000    90.00000    90.00000  Step:          51  Bead:       0 x_centroid{angstrom}  cell{atomic_unit}
       C -3.36766e-01 -2.37757e-01  1.46829e-01
       O  7.46317e-01  3.51796e-01 -2.31964e-01
       H  9.86457e-01  1.12757e+00 -5.29334e-01
       H  1.60734e-02 -1.21078e+00  6.39363e-01
       L  4.99364e-01  9.86963e-01  2.57627e+00
       L -2.27034e+00  2.55191e-01  3.39531e+00
6
# CELL(abcABC):  459.05226   459.05226   459.05226    90.00000    90.00000    90.00000  Step:          52  Bead:       0 x_centroid{angstrom}  cell{atomic_unit}
       C -3.30810e-01 -2.34541e-01  1.45179e-01
       O  7.47428e-01  3.48345e-01 -2.30871e-01
       H  9.14657e-01  1.14595e+00 -5.27172e-01
       H -7.55002e-04 -1.21270e+00  6.39425e-01
       L  5.29987e-01  1.04149e+00  2.67608e+00
       L -2.26445e+00  2.05307e-01  3.45128e+00
6
# CELL(abcABC):  459.05226   459.05226   459.05226    90.00000    90.00000    90.00000  Step:          53  Bead:       0 x_centroid{angstrom}  cell{atomic_unit}
       C -3.25070e-01 -2.31422e-01  1.43645e-01
       O  7.48739e-01  3.43948e-01 -2.29340e-01
       H  8.41637e-01  1.17859e+00 -5.32216e-01
       H -1.69700e-02 -1.21277e+00  6.38385e-01
       L  5.91877e-01  1.14148e+00  2.76853e+00
       L -2.26877e+00  2.20173e-01  3.49133e+00
6
# CELL(abcABC):  459.05226   459.05226   459.05226    90.00000    90.00000    90.00000  Step:          54  Bead:       0 x_centroid{angstrom}  cell{atomic_unit}
       C -3.19606e-01 -2.28315e-01  1.42455e-01
       O  7.50395e-01  3.38855e-01 -2.27693e-01
       H  7.65419e-01  1.22004e+00 -5.41271e-01
       H -3.21999e-02 -1.21048e+00  6.35442e-01
       L  6.89073e-01  1.24358e+00  2.82997e+00
       L -2.26275e+00  2.46537e-01  3.49037e+00
6
# CELL(abcABC):  459.05226   459.05226   459.05226    90.00000    90.00000    90.00000  Step:          55  Bead:       0 x_centroid{angstrom}  cell{atomic_unit}
       C -3.14579e-01 -2.25423e-01  1.41478e-01
       O  7.52406e-01  3.33687e-01 -2.26134e-01
       H  6.87363e-01  1.26315e+00 -5.50332e-01
       H -4.60528e-02 -1.20604e+00  6.31391e-01
       L  8.01044e-01  1.26353e+00  2.90490e+00
       L -2.20861e+00  2.79839e-01  3.43454e+00
6
# CELL(abcABC):  459.05226   459.05226   459.05226    90.00000    90.00000    90.00000  Step:          56  Bead:       0 x_centroid{angstrom}  cell{atomic_unit}
       C -3.10194e-01 -2.22621e-01  1.40519e-01
       O  7.54950e-01  3.28774e-01 -2.24602e-01
       H  6.07314e-01  1.30097e+00 -5.58166e-01
       H -5.87750e-02 -1.19933e+00  6.26410e-01
       L  9.43257e-01  1.30173e+00  2.88431e+00
       L -2.11138e+00  3.45375e-01  3.29230e+00
6
# CELL(abcABC):  459.05226   459.05226   459.05226    90.00000    90.00000    90.00000  Step:          57  Bead:       0 x_centroid{angstrom}  cell{atomic_unit}
       C -3.06295e-01 -2.19881e-01  1.39844e-01
       O  7.57885e-01  3.24288e-01 -2.23277e-01
       H  5.25978e-01  1.33022e+00 -5.64280e-01
       H -7.06344e-02 -1.19011e+00  6.19632e-01
       L  1.08770e+00  1.35301e+00  2.90162e+00
       L -1.97944e+00  4.72262e-01  3.09570e+00
6
# CELL(abcABC):  459.05226   459.05226   459.05226    90.00000    90.00000    90.00000  Step:          58  Bead:       0 x_centroid{angstrom}  cell{atomic_unit}
       C -3.02919e-01 -2.17113e-01  1.39614e-01
       O  7.60987e-01  3.20506e-01 -2.22344e-01
       H  4.47866e-01  1.34715e+00 -5.67847e-01
       H -8.21824e-02 -1.18008e+00  6.11274e-01
       L  1.23130e+00  1.42041e+00  2.88431e+00
       L -1.76883e+00  5.54553e-01  2.85234e+00
6
# CELL(abcABC):  459.05226   459.05226   459.05226    90.00000    90.00000    90.00000  Step:          59  Bead:       0 x_centroid{angstrom}  cell{atomic_unit}
       C -3.00356e-01 -2.14632e-01  1.40172e-01
       O  7.64242e-01  3.17780e-01 -2.22144e-01
       H  3.73910e-01  1.35219e+00 -5.68278e-01
       H -9.06812e-02 -1.17148e+00  6.02073e-01
       L  1.46731e+00  1.49708e+00  2.80209e+00
       L -1.56599e+00  6.09246e-01  2.59639e+00
6
# CELL(abcABC):  459.05226   459.05226   459.05226    90.00000    90.00000    90.00000  Step:          60  Bead:       0 x_centroid{angstrom}  cell{atomic_unit}
       C -2.98540e-01 -2.12071e-01  1.41061e-01
       O  7.67535e-01  3.15982e-01 -2.22400e-01
       H  3.07347e-01  1.34391e+00 -5.64951e-01
       H -9.82371e-02 -1.16521e+00  5.92393e-01
       L  1.62586e+00  1.52713e+00  2.71497e+00
       L -1.35426e+00  6.30517e-01  2.34232e+00
6
# CELL(abcABC):  459.05226   459.05226   459.05226    90.00000    90.00000    90.00000  Step:          61  Bead:       0 x_centroid{angstrom}  cell{atomic_unit}
       C -2.97462e-01 -2.09607e-01  1.42189e-01
       O  7.70586e-01  3.15121e-01 -2.23087e-01
       H  2.50377e-01  1.32337e+00 -5.57072e-01
       H -1.02771e-01 -1.16038e+00  5.82209e-01
       L  1.77041e+00  1.50919e+00  2.59319e+00
       L -1.07152e+00  6.65398e-01  2.05596e+00
6
# CELL(abcABC):  459.05226   459.05226   459.05226    90.00000    90.00000    90.00000  Step:          62  Bead:       0 x_centroid{angstrom}  cell{atomic_unit}
       C -2.97452e-01 -2.07353e-01  1.43649e-01
       O  7.73611e-01  3.15357e-01 -2.24199e-01
       H  2.03966e-01  1.29099e+00 -5.47324e-01
       H -1.04730e-01 -1.15860e+00  5.72967e-01
       L  1.89396e+00  1.47728e+00  2.46590e+00
       L -7.69297e-01  7.34639e-01  1.72576e+00
6
# CELL(abcABC):  459.05226   459.05226   459.05226    90.00000    90.00000    90.00000  Step:          63  Bead:       0 x_centroid{angstrom}  cell{atomic_unit}
       C -2.97984e-01 -2.05556e-01  1.45145e-01
       O  7.76340e-01  3.16623e-01 -2.25559e-01
       H  1.67114e-01  1.24968e+00 -5.35560e-01
       H -1.05061e-01 -1.15879e+00  5.65266e-01
       L  1.96830e+00  1.36763e+00  2.28191e+00
       L -4.45800e-01  7.90598e-01  1.35538e+00
6
# CELL(abcABC):  459.05226   459.05226   459.05226    90.00000    90.00000    90.00000  Step:          64  Bead:       0 x_centroid{angstrom}  cell{atomic_unit}
       C -2.99187e-01 -2.04046e-01  1.46923e-01
       O  7.78782e-01  3.18911e-01 -2.27416e-01
       H  1.41961e-01  1.19918e+00 -5.20787e-01
       H -1.04548e-01 -1.16257e+00  5.59110e-01
       L  2.02536e+00  1.25605e+00  2.07262e+00
       L -1.35917e-01  8.48412e-01  9.60718e-01
6
# CELL(abcABC):  459.05226   459.05226   459.05226    90.00000    90.00000    90.00000  Step:          65  Bead:       0 x_centroid{angstrom}  cell{atomic_unit}
       C -3.01222e-01 -2.02722e-01  1.49245e-01
       O  7.81050e-01  3.21979e-01 -2.29860e-01
       H  1.29275e-01  1.14164e+00 -5.05172e-01
       H -1.03771e-01 -1.16949e+00  5.54865e-01
       L  1.98595e+00  1.16312e+00  1.92996e+00
       L  2.13885e-01  9.14572e-01  6.32446e-01
6
# CELL(abcABC):  459.05226   459.05226   459.05226    90.00000    90.00000    90.00000  Step:          66  Bead:       0 x_centroid{angstrom}  cell{atomic_unit}
       C -3.03832e-01 -2.01998e-01  1.51819e-01