6
# CELL(abcABC):  459.05226   459.05226   459.05226    90.00000    90.00000    90.00000  Step:           0  Bead:       0 x_centroid{angstrom}  cell{atomic_unit}
       C -3.39887e-01 -1.13437e-01  8.06659e-02
       O  8.43483e-01  2.62672e-01 -1.81512e-01
       H -7.35799e-02  8.16467e-01 -6.61432e-01
       H -4.30016e-01 -9.65701e-01  7.62278e-01
       L  0.00000e+00  0.00000e+00  0.00000e+00
       L  0.00000e+00  0.00000e+00  0.00000e+00
6
# CELL(abcABC):  459.05226   459.05226   459.05226    90.00000    90.00000    90.00000  Step:           1  Bead:       0 x_centroid{angstrom}  cell{atomic_unit}
       C -3.37070e-01 -1.16189e-01  8.28067e-02
       O  8.41467e-01  2.64058e-01 -1.82848e-01
       H -7.40223e-02  8.14665e-01 -6.56663e-01
       H -4.31117e-01 -9.53164e-01  7.52894e-01
       L -1.87660e-01 -2.36798e-01  5.67215e-01
       L  1.50120e-01  3.27148e-01  3.68682e-03
6
# CELL(abcABC):  459.05226   459.05226   459.05226    90.00000    90.00000    90.00000  Step:           2  Bead:       0 x_centroid{angstrom}  cell{atomic_unit}
       C -3.34165e-01 -1.18570e-01  8.50487e-02
       O  8.39323e-01  2.65217e-01 -1.84325e-01
       H -7.39488e-02  8.13164e-01 -6.51552e-01
       H -4.31770e-01 -9.41724e-01  7.44218e-01
       L -3.64070e-01 -5.02908e-01  1.07854e+00
       L  3.25115e-01  6.75269e-01  2.60859e-02
6
# CELL(abcABC):  459.05226   459.05226   459.05226    90.00000    90.00000    90.00000  Step:           3  Bead:       0 x_centroid{angstrom}  cell{atomic_unit}
       C -3.31199e-01 -1.20669e-01  8.72012e-02
       O  8.37109e-01  2.66394e-01 -1.85748e-01
       H -7.32332e-02  8.11825e-01 -6.47316e-01
       H -4.32704e-01 -9.34129e-01  7.36641e-01
       L -5.16506e-01 -7.25537e-01  1.57123e+00
       L  4.95362e-01  1.02421e+00  4.86136e-02
6
# CELL(abcABC):  459.05226   459.05226   459.05226    90.00000    90.00000    90.00000  Step:           4  Bead:       0 x_centroid{angstrom}  cell{atomic_unit}
       C -3.28586e-01 -1.22113e-01  8.92824e-02
       O  8.35216e-01  2.67324e-01 -1.87202e-01
       H -7.39930e-02  8.10505e-01 -6.43967e-01
       H -4.33054e-01 -9.30447e-01  7.31329e-01
       L -6.09036e-01 -9.28709e-01  2.04324e+00
       L  6.30864e-01  1.37232e+00  5.77981e-03
6
# CELL(abcABC):  459.05226   459.05226   459.05226    90.00000    90.00000    90.00000  Step:           5  Bead:       0 x_centroid{angstrom}  cell{atomic_unit}
       C -3.26399e-01 -1.23403e-01  9.09261e-02
       O  8.33623e-01  2.68457e-01 -1.88633e-01
       H -7.49001e-02  8.08938e-01 -6.39792e-01
       H -4.32938e-01 -9.31572e-01  7.30093e-01
       L -7.26731e-01 -1.10911e+00  2.50158e+00
       L  7.86362e-01  1.68697e+00 -1.03401e-01
6
# CELL(abcABC):  459.05226   459.05226   459.05226    90.00000    90.00000    90.00000  Step:           6  Bead:       0 x_centroid{angstrom}  cell{atomic_unit}
       C -3.24531e-01 -1.24353e-01  9.25911e-02
       O  8.32190e-01  2.69550e-01 -1.90196e-01
       H -7.53342e-02  8.08597e-01 -6.36844e-01
       H -4.32074e-01 -9.37337e-01  7.31963e-01
       L -7.98259e-01 -1.27173e+00  2.91002e+00
       L  9.53946e-01  1.99776e+00 -2.19688e-01
6
# CELL(abcABC):  459.05226   459.05226   459.05226    90.00000    90.00000    90.00000  Step:           7  Bead:       0 x_centroid{angstrom}  cell{atomic_unit}
       C -3.23147e-01 -1.25160e-01  9.40333e-02
       O  8.30996e-01  2.70658e-01 -1.91702e-01
       H -7.62268e-02  8.09549e-01 -6.35955e-01
       H -4.28794e-01 -9.46336e-01  7.37605e-01
       L -8.42506e-01 -1.42874e+00  3.32671e+00
       L  1.15973e+00  2.27793e+00 -2.99895e-01
6
# CELL(abcABC):  459.05226   459.05226   459.05226    90.00000    90.00000    90.00000  Step:           8  Bead:       0 x_centroid{angstrom}  cell{atomic_unit}
       C -3.22500e-01 -1.25801e-01  9.53623e-02
       O  8.30196e-01  2.71847e-01 -1.93199e-01
       H -7.53477e-02  8.11757e-01 -6.36140e-01
       H -4.24797e-01 -9.59863e-01  7.45553e-01
       L -8.47402e-01 -1.54206e+00  3.68445e+00
       L  1.35864e+00  2.55314e+00 -3.51576e-01
6
# CELL(abcABC):  459.05226   459.05226   459.05226    90.00000    90.00000    90.00000  Step:           9  Bead:       0 x_centroid{angstrom}  cell{atomic_unit}
       C -3.22056e-01 -1.26519e-01  9.63726e-02
       O  8.29622e-01  2.73237e-01 -1.94506e-01
       H -7.42614e-02  8.14004e-01 -6.37057e-01
       H -4.22134e-01 -9.75713e-01  7.55017e-01
       L -8.91772e-01 -1.63934e+00  4.01805e+00
       L  1.51981e+00  2.83788e+00 -3.88702e-01
6
# CELL(abcABC):  459.05226   459.05226   459.05226    90.00000    90.00000    90.00000  Step:          10  Bead:       0 x_centroid{angstrom}  cell{atomic_unit}
       C -3.22106e-01 -1.27001e-01  9.74127e-02
       O  8.29365e-01  2.74344e-01 -1.95847e-01
       H -7.32623e-02  8.17928e-01 -6.37887e-01
       H -4.18549e-01 -9.91549e-01  7.64627e-01
       L -8.69754e-01 -1.76549e+00  4.29901e+00
       L  1.67665e+00  3.10556e+00 -4.60382e-01
6
# CELL(abcABC):  459.05226   459.05226   459.05226    90.00000    90.00000    90.00000  Step:          11  Bead:       0 x_centroid{angstrom}  cell{atomic_unit}
       C -3.22750e-01 -1.27494e-01  9.84244e-02
       O  8.29376e-01  2.75483e-01 -1.97135e-01
       H -7.06821e-02  8.23356e-01 -6.39198e-01
       H -4.13710e-01 -1.00921e+00  7.74203e-01
       L -8.61357e-01 -1.90500e+00  4.56639e+00
       L  1.79932e+00  3.28637e+00 -5.02708e-01
6
# CELL(abcABC):  459.05226   459.05226   459.05226    90.00000    90.00000    90.00000  Step:          12  Bead:       0 x_centroid{angstrom}  cell{atomic_unit}
       C -3.23505e-01 -1.28352e-01  9.95248e-02
       O  8.29300e-01  2.76837e-01 -1.98491e-01
       H -6.63498e-02  8.30391e-01 -6.40938e-01
       H -4.07917e-01 -1.02757e+00  7.84291e-01
       L -8.31059e-01 -1.98755e+00  4.76180e+00
       L  1.91497e+00  3.47531e+00 -5.66428e-01
6
# CELL(abcABC):  459.05226   459.05226   459.05226    90.00000    90.00000    90.00000  Step:          13  Bead:       0 x_centroid{angstrom}  cell{atomic_unit}
       C -3.24337e-01 -1.29525e-01  1.00763e-01
       O  8.29049e-01  2.78300e-01 -1.99815e-01
       H -5.94795e-02  8.37379e-01 -6.43017e-01
       H -4.00950e-01 -1.04380e+00  7.92615e-01
       L -8.28864e-01 -2.07548e+00  4.89134e+00
       L  2.02859e+00  3.58390e+00 -6.69992e-01
6
# CELL(abcABC):  459.05226   459.05226   459.05226    90.00000    90.00000    90.00000  Step:          14  Bead:       0 x_centroid{angstrom}  cell{atomic_unit}
       C -3.25614e-01 -1.31273e-01  1.02402e-01
       O  8.28948e-01  2.79914e-01 -2.01358e-01
       H -5.08113e-02  8.44672e-01 -6.44829e-01
       H -3.92858e-01 -1.05594e+00  7.99392e-01
       L -8.24318e-01 -2.07977e+00  5.00131e+00
       L  2.14320e+00  3.67840e+00 -7.94317e-01
6
# CELL(abcABC):  459.05226   459.05226   459.05226    90.00000    90.00000    90.00000  Step:          15  Bead:       0 x_centroid{angstrom}  cell{atomic_unit}
       C -3.27047e-01 -1.33129e-01  1.04380e-01
       O  8.28632e-01  2.81355e-01 -2.03016e-01
       H -3.86180e-02  8.51928e-01 -6.46486e-01
       H -3.82991e-01 -1.06395e+00  8.03793e-01
       L -8.35148e-01 -2.07165e+00  5.09579e+00
       L  2.20634e+00  3.68457e+00 -8.67357e-01
6
# CELL(abcABC):  459.05226   459.05226   459.05226    90.00000    90.00000    90.00000  Step:          16  Bead:       0 x_centroid{angstrom}  cell{atomic_unit}
       C -3.28787e-01 -1.35613e-01  1.06618e-01
       O  8.28234e-01  2.83066e-01 -2.04724e-01
       H -2.27761e-02  8.59450e-01 -6.48651e-01
       H -3.71813e-01 -1.06898e+00  8.06387e-01
       L -8.01974e-01 -2.13241e+00  5.16138e+00
       L  2.22100e+00  3.64450e+00 -9.10365e-01
6
# CELL(abcABC):  459.05226   459.05226   459.05226    90.00000    90.00000    90.00000  Step:          17  Bead:       0 x_centroid{angstrom}  cell{atomic_unit}
       C -3.30787e-01 -1.38608e-01  1.09223e-01
       O  8.27513e-01  2.84990e-01 -2.06521e-01
       H -1.17697e-03  8.66196e-01 -6.50547e-01
       H -3.58132e-01 -1.07050e+00  8.05784e-01
       L -7.47079e-01 -2.15700e+00  5.16293e+00
       L  2.19453e+00  3.51780e+00 -9.54991e-01
6
# CELL(abcABC):  459.05226   459.05226   459.05226    90.00000    90.00000    90.00000  Step:          18  Bead:       0 x_centroid{angstrom}  cell{atomic_unit}
       C -3.32813e-01 -1.42350e-01  1.12156e-01
       O  8.26336e-01  2.87223e-01 -2.08422e-01
       H  2.73217e-02  8.73635e-01 -6.52159e-01
       H -3.43805e-01 -1.06871e+00  8.02682e-01
       L -7.35846e-01 -2.12187e+00  5.11835e+00
       L  2.15130e+00  3.33302e+00 -1.03174e+00
6
# CELL(abcABC):  459.05226   459.05226   459.05226    90.00000    90.00000    90.00000  Step:          19  Bead:       0 x_centroid{angstrom}  cell{atomic_unit}
       C -3.35243e-01 -1.46843e-01  1.15633e-01
       O  8.24964e-01  2.89773e-01 -2.10417e-01
       H  6.39201e-02  8.81739e-01 -6.55670e-01
       H -3.29640e-01 -1.06367e+00  7.96521e-01
       L -6.69052e-01 -2.07533e+00  5.03394e+00
       L  2.04682e+00  3.12154e+00 -1.09417e+00
6
# CELL(abcABC):  459.05226   459.05226   459.05226    90.00000    90.00000    90.00000  Step:          20  Bead:       0 x_centroid{angstrom}  cell{atomic_unit}
       C -3.37743e-01 -1.52151e-01  1.19621e-01
       O  8.23051e-01  2.92716e-01 -2.12663e-01
       H  1.07506e-01  8.90236e-01 -6.59449e-01
       H -3.13029e-01 -1.05561e+00  7.88494e-01
       L -5.88467e-01 -1.93700e+00  4.94944e+00
       L  1.89119e+00  2.93743e+00 -1.13962e+00
6
# CELL(abcABC):  459.05226   459.05226   459.05226    90.00000    90.00000    90.00000  Step:          21  Bead:       0 x_centroid{angstrom}  cell{atomic_unit}
       C -3.40665e-01 -1.57778e-01  1.23954e-01
       O  8.20737e-01  2.95712e-01 -2.15163e-01
       H  1.59439e-01  9.00939e-01 -6.64002e-01
       H -2.93420e-01 -1.04679e+00  7.81234e-01
       L -4.80378e-01 -1.77007e+00  4.80113e+00
       L  1.77981e+00  2.72100e+00 -1.22979e+00
6
# CELL(abcABC):  459.05226   459.05226   459.05226    90.00000    90.00000    90.00000  Step:          22  Bead:       0 x_centroid{angstrom}  cell{atomic_unit}
       C -3.43520e-01 -1.63927e-01  1.28411e-01
       O  8.17858e-01  2.98954e-01 -2.17618e-01
       H  2.17378e-01  9.12792e-01 -6.70241e-01
       H -2.71612e-01 -1.03682e+00  7.73461e-01
       L -4.02085e-01 -1.55933e+00  4.61963e+00
       L  1.66979e+00  2.48683e+00 -1.30669e+00
6
# CELL(abcABC):  459.05226   459.05226   459.05226    90.00000    90.00000    90.00000  Step:          23  Bead:       0 x_centroid{angstrom}  cell{atomic_unit}
       C -3.46630e-01 -1.70507e-01  1.33196e-01
       O  8.14642e-01  3.02297e-01 -2.20283e-01
       H  2.82316e-01  9.29211e-01 -6.78463e-01
       H -2.48412e-01 -1.02784e+00  7.67173e-01
       L -3.16111e-01 -1.35708e+00  4.36924e+00
       L  1.52142e+00  2.19746e+00 -1.43765e+00
6
# CELL(abcABC):  459.05226   459.05226   459.05226    90.00000    90.00000    90.00000  Step:          24  Bead:       0 x_centroid{angstrom}  cell{atomic_unit}
       C -3.49878e-01 -1.77121e-01  1.38019e-01
       O  8.11097e-01  3.05529e-01 -2.22863e-01
       H  3.52047e-01  9.49767e-01 -6.89398e-01
       H -2.23144e-01 -1.02080e+00  7.61826e-01
       L -1.99390e-01 -1.19054e+00  4.06226e+00
       L  1.38453e+00  1.87568e+00 -1.55022e+00
6
# CELL(abcABC):  459.05226   459.05226   459.05226    90.00000    90.00000    90.00000  Step:          25  Bead:       0 x_centroid{angstrom}  cell{atomic_unit}
       C -3.53618e-01 -1.83940e-01  1.42962e-01
       O  8.07580e-01  3.08737e-01 -2.25390e-01
       H  4.23666e-01  9.77585e-01 -7.04853e-01
       H -1.94320e-01 -1.01820e+00  7.58711e-01
       L -1.21657e-01 -1.00412e+00  3.71760e+00
       L  1.20599e+00  1.53520e+00 -1.62054e+00
6
# CELL(abcABC):  459.05226   459.05226   459.05226    90.00000    90.00000    90.00000  Step:          26  Bead:       0 x_centroid{angstrom}  cell{atomic_unit}
       C -3.57236e-01 -1.90788e-01  1.47834e-01
       O  8.03784e-01  3.11797e-01 -2.27792e-01
       H  4.95726e-01  1.01203e+00 -7.23631e-01
       H -1.62966e-01 -1.01951e+00  7.57805e-01
       L -4.27270e-02 -8.05573e-01  3.35255e+00
       L  1.03037e+00  1.14843e+00 -1.67175e+00
6
# CELL(abcABC):  459.05226   459.05226   459.05226    90.00000    90.00000    90.00000  Step:          27  Bead:       0 x_centroid{angstrom}  cell{atomic_unit}
       C -3.60684e-01 -1.97429e-01  1.52151e-01
       O  7.99714e-01  3.14475e-01 -2.29684e-01
       H  5.68272e-01  1.05257e+00 -7.45993e-01
       H -1.29771e-01 -1.02328e+00  7.58988e-01
       L  1.43478e-02 -6.03422e-01  2.90301e+00
       L  8.84269e-01  6.79415e-01 -1.68865e+00
6
# CELL(abcABC):  459.05226   459.05226   459.05226    90.00000    90.00000    90.00000  Step:          28  Bead:       0 x_centroid{angstrom}  cell{atomic_unit}
       C -3.64015e-01 -2.03653e-01  1.56261e-01
       O  7.95436e-01  3.16883e-01 -2.31482e-01
       H  6.40229e-01  1.09633e+00 -7.70925e-01
       H -9.40883e-02 -1.03097e+00  7.63717e-01
       L  1.02822e-01 -4.09048e-01  2.46127e+00
       L  7.01866e-01  2.45517e-01 -1.66720e+00
6
# CELL(abcABC):  459.05226   459.05226   459.05226    90.00000    90.00000    90.00000  Step:          29  Bead:       0 x_centroid{angstrom}  cell{atomic_unit}
       C -3.67214e-01 -2.09459e-01  1.60089e-01
       O  7.91142e-01  3.19153e-01 -2.33204e-01
       H  7.10539e-01  1.13912e+00 -7.95109e-01
       H -5.81056e-02 -1.04047e+00  7.69873e-01
       L  2.26878e-01 -1.77978e-01  1.96284e+00
       L  5.58951e-01 -2.61112e-01 -1.60324e+00
6
# CELL(abcABC):  459.05226   459.05226   459.05226    90.00000    90.00000    90.00000  Step:          30  Bead:       0 x_centroid{angstrom}  cell{atomic_unit}
       C -3.70237e-01 -2.14911e-01  1.63929e-01
       O  7.86815e-01  3.21657e-01 -2.35153e-01
       H  7.79682e-01  1.17544e+00 -8.16285e-01
       H -2.24877e-02 -1.05144e+00  7.76481e-01
       L  2.67972e-01  1.01234e-01  1.38484e+00
       L  4.28060e-01 -7.67485e-01 -1.48735e+00
6
# CELL(abcABC):  459.05226   459.05226   459.05226    90.00000    90.00000    90.00000  Step:          31  Bead:       0 x_centroid{angstrom}  cell{atomic_unit}
       C -3.72837e-01 -2.19965e-01  1.67601e-01
       O  7.82402e-01  3.24381e-01 -2.37218e-01
       H  8.45207e-01  1.20431e+00 -8.33022e-01
       H  1.30909e-02 -1.06319e+00  7.82466e-01
       L  2.67088e-01  3.52146e-01  8.33559e-01
       L  2.78220e-01 -1.26644e+00 -1.37187e+00
6
# CELL(abcABC):  459.05226   459.05226   459.05226    90.00000    90.00000    90.00000  Step:          32  Bead:       0 x_centroid{angstrom}  cell{atomic_unit}
       C -3.75069e-01 -2.24692e-01  1.70926e-01
       O  7.78033e-01  3.27354e-01 -2.39292e-01
       H  9.06659e-01  1.22464e+00 -8.44980e-01
       H  4.77259e-02 -1.07425e+00  7.87960e-01
       L  1.67318e-01  6.11034e-01  2.89540e-01
       L  1.36216e-01 -1.77554e+00 -1.25165e+00
6
# CELL(abcABC):  459.05226   459.05226   459.05226    90.00000    90.00000    90.00000  Step:          33  Bead:       0 x_centroid{angstrom}  cell{atomic_unit}
       C -3.77017e-01 -2.29402e-01  1.74082e-01
       O  7.73867e-01  3.30838e-01 -2.41565e-01
       H  9.63880e-01  1.23578e+00 -8.50647e-01
       H  8.00034e-02 -1.08442e+00  7.92355e-01
       L  3.18138e-02  8.58658e-01 -2.60024e-01
       L -1.05376e-02 -2.30278e+00 -1.16908e+00
6
# CELL(abcABC):  459.05226   459.05226   459.05226    90.00000    90.00000    90.00000  Step:          34  Bead:       0 x_centroid{angstrom}  cell{atomic_unit}
       C -3.78636e-01 -2.33593e-01  1.77043e-01
       O  7.70014e-01  3.34508e-01 -2.43957e-01
       H  1.01451e+00  1.23620e+00 -8.49943e-01
       H  1.10008e-01 -1.09301e+00  7.94607e-01
       L -1.28524e-01  1.10696e+00 -8.56816e-01
       L -1.78509e-01 -2.80486e+00 -1.07540e+00
6
# CELL(abcABC):  459.05226   459.05226   459.05226    90.00000    90.00000    90.00000  Step:          35  Bead:       0 x_centroid{angstrom}  cell{atomic_unit}
       C -3.79987e-01 -2.37727e-01  1.79769e-01
       O  7.66589e-01  3.38675e-01 -2.46401e-01
       H  1.05777e+00  1.22688e+00 -8.43057e-01
       H  1.37306e-01 -1.10047e+00  7.94288e-01
       L -2.77895e-01  1.35257e+00 -1.42630e+00
       L -2.28797e-01 -3.25999e+00 -9.75798e-01
6
# CELL(abcABC):  459.05226   459.05226   459.05226    90.00000    90.00000    90.00000  Step:          36  Bead:       0 x_centroid{angstrom}  cell{atomic_unit}
       C -3.80838e-01 -2.41692e-01  1.82401e-01
       O  7.63470e-01  3.43195e-01 -2.49087e-01
       H  1.09238e+00  1.20755e+00 -8.29909e-01
       H  1.62464e-01 -1.10554e+00  7.92647e-01
       L -4.63077e-01  1.59975e+00 -1.97361e+00
       L -2.45678e-01 -3.65950e+00 -8.58464e-01
6
# CELL(abcABC):  459.05226   459.05226   459.05226    90.00000    90.00000    90.00000  Step:          37  Bead:       0 x_centroid{angstrom}  cell{atomic_unit}
       C -3.80894e-01 -2.45783e-01  1.85132e-01
       O  7.60562e-01  3.48052e-01 -2.51978e-01
       H  1.11841e+00  1.18061e+00 -8.11688e-01
       H  1.83339e-01 -1.10691e+00  7.87935e-01
       L -6.08783e-01  1.88135e+00 -2.39189e+00
       L -2.18655e-01 -4.01534e+00 -7.30547e-01
6
# CELL(abcABC):  459.05226   459.05226   459.05226    90.00000    90.00000    90.00000  Step:          38  Bead:       0 x_centroid{angstrom}  cell{atomic_unit}
       C -3.80259e-01 -2.49832e-01  1.87704e-01
       O  7.57780e-01  3.52988e-01 -2.54905e-01
       H  1.13772e+00  1.14621e+00 -7.87819e-01
       H  2.00670e-01 -1.10257e+00  7.79943e-01
       L -7.99272e-01  2.10213e+00 -2.69408e+00
       L -1.37451e-01 -4.30651e+00 -5.45928e-01
6
# CELL(abcABC):  459.05226   459.05226   459.05226    90.00000    90.00000    90.00000  Step:          39  Bead:       0 x_centroid{angstrom}  cell{atomic_unit}
       C -3.79203e-01 -2.53685e-01  1.90443e-01
       O  7.55380e-01  3.57865e-01 -2.57976e-01
       H  1.14912e+00  1.10753e+00 -7.61295e-01
       H  2.14793e-01 -1.09535e+00  7.69582e-01
       L -9.50325e-01  2.23672e+00 -2.98358e+00
       L -3.75671e-02 -4.50714e+00 -3.46894e-01
6
# CELL(abcABC):  459.05226   459.05226   459.05226    90.00000    90.00000    90.00000  Step:          40  Bead:       0 x_centroid{angstrom}  cell{atomic_unit}
       C -3.77482e-01 -2.57435e-01  1.93208e-01
       O  7.53156e-01  3.62668e-01 -2.61117e-01
       H  1.15410e+00  1.06634e+00 -7.34168e-01
       H  2.24648e-01 -1.08569e+00  7.59376e-01
       L -1.09388e+00  2.33376e+00 -3.23320e+00
       L  5.67081e-02 -4.68415e+00 -1.22076e-01
6
# CELL(abcABC):  459.05226   459.05226   459.05226    90.00000    90.00000    90.00000  Step:          41  Bead:       0 x_centroid{angstrom}  cell{atomic_unit}
       C -3.75168e-01 -2.61048e-01  1.95577e-01
       O  7.50976e-01  3.66947e-01 -2.63857e-01
       H  1.15540e+00  1.02884e+00 -7.07673e-01
       H  2.30402e-01 -1.07299e+00  7.48159e-01
       L -1.24645e+00  2.38532e+00 -3.46906e+00
       L  1.72055e-01 -4.82715e+00  6.75734e-02
6
# CELL(abcABC):  459.05226   459.05226   459.05226    90.00000    90.00000    90.00000  Step:          42  Bead:       0 x_centroid{angstrom}  cell{atomic_unit}
       C -3.72271e-01 -2.64649e-01  1.98040e-01
       O  7.48701e-01  3.70520e-01 -2.66171e-01
       H  1.15526e+00  9.99927e-01 -6.87986e-01
       H  2.32131e-01 -1.05787e+00  7.35835e-01
       L -1.37926e+00  2.44258e+00 -3.64432e+00
       L  3.08104e-01 -4.95005e+00  2.86611e-01
6
# CELL(abcABC):  459.05226   459.05226   459.05226    90.00000    90.00000    90.00000  Step:          43  Bead:       0 x_centroid{angstrom}  cell{atomic_unit}
       C -3.68623e-01 -2.67943e-01  2.00191e-01
       O  7.45897e-01  3.72918e-01 -2.67632e-01
       H  1.15738e+00  9.84880e-01 -6.77369e-01
       H  2.31067e-01 -1.04159e+00  7.22772e-01
       L -1.53945e+00  2.47095e+00 -3.82636e+00
       L  4.48097e-01 -5.02895e+00  4.84104e-01
6
# CELL(abcABC):  459.05226   459.05226   459.05226    90.00000    90.00000    90.00000  Step:          44  Bead:       0 x_centroid{angstrom}  cell{atomic_unit}
       C -3.64281e-01 -2.70687e-01  2.01860e-01
       O  7.42420e-01  3.73798e-01 -2.68070e-01
       H  1.16558e+00  9.87947e-01 -6.78258e-01
       H  2.26298e-01 -1.02594e+00  7.10692e-01
       L -1.69368e+00  2.45777e+00 -3.95417e+00
       L  6.18909e-01 -5.02083e+00  6.88718e-01
6
# CELL(abcABC):  459.05226   459.05226   459.05226    90.00000    90.00000    90.00000  Step:          45  Bead:       0 x_centroid{angstrom}  cell{atomic_unit}
       C -3.59319e-01 -2.72953e-01  2.03376e-01
       O  7.38233e-01  3.73469e-01 -2.67814e-01
       H  1.17934e+00  1.00628e+00 -6.88361e-01
       H  2.19896e-01 -1.01204e+00  6.98667e-01
       L -1.85732e+00  2.40819e+00 -4.10570e+00
       L  7.58911e-01 -5.00658e+00  8.40570e-01
6
# CELL(abcABC):  459.05226   459.05226   459.05226    90.00000    90.00000    90.00000  Step:          46  Bead:       0 x_centroid{angstrom}  cell{atomic_unit}
       C -3.53928e-01 -2.74958e-01  2.04528e-01
       O  7.33827e-01  3.72412e-01 -2.66954e-01
       H  1.19357e+00  1.03667e+00 -7.06421e-01
       H  2.11381e-01 -1.00174e+00  6.89318e-01
       L -1.98577e+00  2.31735e+00 -4.22829e+00
       L  8.53341e-01 -4.94327e+00  9.86304e-01
6
# CELL(abcABC):  459.05226   459.05226   459.05226    90.00000    90.00000    90.00000  Step:          47  Bead:       0 x_centroid{angstrom}  cell{atomic_unit}
       C -3.48386e-01 -2.76176e-01  2.05053e-01
       O  7.29465e-01  3.70838e-01 -2.65495e-01
       H  1.20535e+00  1.07195e+00 -7.28757e-01
       H  2.02829e-01 -9.97504e-01  6.82230e-01
       L -2.14917e+00  2.15740e+00 -4.30387e+00
       L  9.49631e-01 -4.77516e+00  1.10684e+00
6
# CELL(abcABC):  459.05226   459.05226   459.05226    90.00000    90.00000    90.00000  Step:          48  Bead:       0 x_centroid{angstrom}  cell{atomic_unit}
       C -3.42700e-01 -2.76624e-01  2.04834e-01
       O  7.25315e-01  3.69181e-01 -2.63760e-01
       H  1.21113e+00  1.10707e+00 -7.49841e-01
       H  1.95229e-01 -1.00102e+00  6.78354e-01
       L -2.31638e+00  1.98849e+00 -4.33375e+00
       L  1.00741e+00 -4.55554e+00  1.16374e+00
6
# CELL(abcABC):  459.05226   459.05226   459.05226    90.00000    90.00000    90.00000  Step:          49  Bead:       0 x_centroid{angstrom}  cell{atomic_unit}
       C -3.37167e-01 -2.76092e-01  2.03742e-01
       O  7.21627e-01  3.67424e-01 -2.61891e-01
       H  1.20866e+00  1.13894e+00 -7.66084e-01
       H  1.90380e-01 -1.01136e+00  6.77968e-01
       L -2.48445e+00  1.78654e+00 -4.37837e+00
       L  1.05319e+00 -4.31816e+00  1.17071e+00
6
# CELL(abcABC):  459.05226   459.05226   459.05226    90.00000    90.00000    90.00000  Step:          50  Bead:       0 x_centroid{angstrom}  cell{atomic_unit}
       C -3.32098e-01 -2.74901e-01  2.02169e-01
       O  7.18761e-01  3.65980e-01 -2.60314e-01
       H  1.19625e+00  1.16422e+00 -7.76657e-01
       H  1.87945e-01 -1.02796e+00  6.82273e-01
       L -2.65120e+00  1.60793e+00 -4.40539e+00
       L  1.11355e+00 -4.04731e+00  1.17445e+00
6
# CELL(abcABC):  459.05226   459.05226   459.05226    90.00000    90.00000    90.00000  Step:          51  Bead:       0 x_centroid{angstrom}  cell{atomic_unit}
       C -3.27621e-01 -2.72938e-01  2.00224e-01
       O  7.16700e-01  3.64767e-01 -2.58900e-01
       H  1.17440e+00  1.18247e+00 -7.83179e-01
       H  1.89214e-01 -1.05043e+00  6.89474e-01
       L -2.81313e+00  1.48889e+00 -4.35900e+00
       L  1.17813e+00 -3.75718e+00  1.19866e+00
6
# CELL(abcABC):  459.05226   459.05226   459.05226    90.00000    90.00000    90.00000  Step:          52  Bead:       0 x_centroid{angstrom}  cell{atomic_unit}
       C -3.23250e-01 -2.70101e-01  1.98158e-01
       O  7.15327e-01  3.63707e-01 -2.57835e-01
       H  1.14114e+00  1.19267e+00 -7.84638e-01
       H  1.92180e-01 -1.07776e+00  6.98629e-01
       L -2.90342e+00  1.37004e+00 -4.28878e+00
       L  1.25520e+00 -3.39257e+00  1.16051e+00
6
# CELL(abcABC):  459.05226   459.05226   459.05226    90.00000    90.00000    90.00000  Step:          53  Bead:       0 x_centroid{angstrom}  cell{atomic_unit}
       C -3.19091e-01 -2.67582e-01  1.96215e-01
       O  7.14714e-01  3.63255e-01 -2.57276e-01
       H  1.09897e+00  1.19717e+00 -7.81146e-01
       H  1.94526e-01 -1.10523e+00  7.09391e-01
       L -2.96958e+00  1.24181e+00 -4.20308e+00
       L  1.31453e+00 -3.01961e+00  1.13727e+00
6
# CELL(abcABC):  459.05226   459.05226   459.05226    90.00000    90.00000    90.00000  Step:          54  Bead:       0 x_centroid{angstrom}  cell{atomic_unit}
       C -3.14662e-01 -2.64707e-01  1.94161e-01
       O  7.14454e-01  3.62996e-01 -2.56917e-01
       H  1.04852e+00  1.19405e+00 -7.73408e-01
       H  1.96345e-01 -1.13242e+00  7.20429e-01
       L -2.99056e+00  1.12639e+00 -4.11590e+00
       L  1.32343e+00 -2.59337e+00  1.04404e+00
6
# CELL(abcABC):  459.05226   459.05226   459.05226    90.00000    90.00000    90.00000  Step:          55  Bead:       0 x_centroid{angstrom}  cell{atomic_unit}
       C -3.10317e-01 -2.61807e-01  1.92227e-01
       O  7.14801e-01  3.62970e-01 -2.56768e-01
       H  9.91513e-01  1.18411e+00 -7.62983e-01
       H  1.96065e-01 -1.15680e+00  7.30651e-01
       L -3.03080e+00  1.00880e+00 -3.94664e+00
       L  1.35861e+00 -2.16387e+00  9.53063e-01
6
# CELL(abcABC):  459.05226   459.05226   459.05226    90.00000    90.00000    90.00000  Step:          56  Bead:       0 x_centroid{angstrom}  cell{atomic_unit}
       C -3.06258e-01 -2.58783e-01  1.90696e-01
       O  7.15915e-01  3.62905e-01 -2.56812e-01
       H  9.27133e-01  1.16991e+00 -7.51295e-01
       H  1.94411e-01 -1.17775e+00  7.37828e-01
       L -3.10688e+00  9.09157e-01 -3.75129e+00
       L  1.40036e+00 -1.79368e+00  8.76721e-01
6
# CELL(abcABC):  459.05226   459.05226   459.05226    90.00000    90.00000    90.00000  Step:          57  Bead:       0 x_centroid{angstrom}  cell{atomic_unit}
       C -3.02456e-01 -2.56239e-01  1.89081e-01
       O  7.17735e-01  3.62902e-01 -2.56749e-01
       H  8.57361e-01  1.15586e+00 -7.37855e-01
       H  1.90022e-01 -1.19413e+00  7.42569e-01
       L -3.18198e+00  8.10400e-01 -3.56619e+00
       L  1.42155e+00 -1.40279e+00  8.19150e-01
6
# CELL(abcABC):  459.05226   459.05226   459.05226    90.00000    90.00000    90.00000  Step:          58  Bead:       0 x_centroid{angstrom}  cell{atomic_unit}
       C -2.99005e-01 -2.53939e-01  1.87146e-01
       O  7.20133e-01  3.62703e-01 -2.56269e-01
       H  7.83475e-01  1.14365e+00 -7.24467e-01
       H  1.84684e-01 -1.20635e+00  7.44564e-01
       L -3.21484e+00  7.09367e-01 -3.38256e+00
       L  1.49759e+00 -9.58511e-01  7.49234e-01
6
# CELL(abcABC):  459.05226   459.05226   459.05226    90.00000    90.00000    90.00000  Step:          59  Bead:       0 x_centroid{angstrom}  cell{atomic_unit}
       C -2.95677e-01 -2.51961e-01  1.85406e-01
       O  7.22910e-01  3.62028e-01 -2.55561e-01
       H  7.07099e-01  1.13613e+00 -7.14016e-01
       H  1.77300e-01 -1.21186e+00  7.43547e-01
       L -3.23662e+00  6.11055e-01 -3.18514e+00
       L  1.57200e+00 -5.55518e-01  6.67804e-01
6
# CELL(abcABC):  459.05226   459.05226   459.05226    90.00000    90.00000    90.00000  Step:          60  Bead:       0 x_centroid{angstrom}  cell{atomic_unit}
       C -2.92311e-01 -2.50316e-01  1.84103e-01
       O  7.25952e-01  3.60791e-01 -2.54575e-01
       H  6.27917e-01  1.13636e+00 -7.08899e-01
       H  1.68028e-01 -1.21220e+00  7.38221e-01
       L -3.18925e+00  4.84154e-01 -2.96336e+00
       L  1.62850e+00 -1.65119e-01  5.86214e-01
6
# CELL(abcABC):  459.05226   459.05226   459.05226    90.00000    90.00000    90.00000  Step:          61  Bead:       0 x_centroid{angstrom}  cell{atomic_unit}
       C -2.88729e-01 -2.48964e-01  1.83128e-01
       O  7.29282e-01  3.59081e-01 -2.53446e-01
       H  5.44960e-01  1.14250e+00 -7.08258e-01
       H  1.55402e-01 -1.20744e+00  7.31249e-01
       L -3.13573e+00  3.17920e-01 -2.75140e+00
       L  1.65507e+00  2.57755e-01  4.45809e-01
6
# CELL(abcABC):  459.05226   459.05226   459.05226    90.00000    90.00000    90.00000  Step:          62  Bead:       0 x_centroid{angstrom}  cell{atomic_unit}
       C -2.85403e-01 -2.48097e-01  1.82360e-01
       O  7.32931e-01  3.57262e-01 -2.52189e-01
       H  4.61024e-01  1.15167e+00 -7.08388e-01
       H  1.41764e-01 -1.19822e+00  7.20534e-01
       L -3.09307e+00  1.75337e-01 -2.52794e+00
       L  1.67434e+00  6.73518e-01  2.85759e-01
6
# CELL(abcABC):  459.05226   459.05226   459.05226    90.00000    90.00000    90.00000  Step:          63  Bead:       0 x_centroid{angstrom}  cell{atomic_unit}
       C -2.82031e-01 -2.48248e-01  1.81644e-01
       O  7.36567e-01  3.55908e-01 -2.50841e-01
       H  3.78009e-01  1.16153e+00 -7.07479e-01
       H  1.26848e-01 -1.18497e+00  7.06719e-01
       L -3.05546e+00  4.93693e-02 -2.26892e+00
       L  1.66480e+00  1.16214e+00  9.50437e-02
6
# CELL(abcABC):  459.05226   459.05226   459.05226    90.00000    90.00000    90.00000  Step:          64  Bead:       0 x_centroid{angstrom}  cell{atomic_unit}
       C -2.78903e-01 -2.48922e-01  1.81436e-01
       O  7.40107e-01  3.54994e-01 -2.49909e-01
       H  2.99377e-01  1.16856e+00 -7.06626e-01
       H  1.11977e-01 -1.16968e+00  6.93503e-01
       L -3.00441e+00 -9.15245e-02 -1.98468e+00
       L  1.69178e+00  1.69309e+00 -1.08172e-01
6
# CELL(abcABC):  459.05226   459.05226   459.05226    90.00000    90.00000    90.00000  Step:          65  Bead:       0 x_centroid{angstrom}  cell{atomic_unit}
       C -2.76358e-01 -2.50188e-01  1.81511e-01
       O  7.43694e-01  3.54712e-01 -2.49294e-01
       H  2.26933e-01  1.17121e+00 -7.02615e-01
       H  9.70726e-02 -1.15299e+00  6.78747e-01
       L -2.90584e+00 -2.20282e-01 -1.66044e+00
       L  1.75563e+00  2.20027e+00 -2.66485e-01
6
# CELL(abcABC):  459.05226   459.05226   459.05226    90.00000    90.00000    90.00000  Step:          66  Bead:       0 x_centroid{angstrom}  cell{atomic_unit}
       C -2.74148e-01 -2.52103e-01  1.81640e-01