6
# CELL(abcABC):  459.05226   459.05226   459.05226    90.00000    90.00000    90.00000  Step:           0  Bead:       0 x_centroid{angstrom}  cell{atomic_unit}
       C -3.39887e-01 -1.13437e-01  8.06659e-02
       O  8.43483e-01  2.62672e-01 -1.81512e-01
       H -7.35799e-02  8.16467e-01 -6.61432e-01
       H -4.30016e-01 -9.65701e-01  7.62278e-01
       L  0.00000e+00  0.00000e+00  0.00000e+00
       L  0.00000e+00  0.00000e+00  0.00000e+00
6
# CELL(abcABC):  459.05226   459.05226   459.05226    90.00000    90.00000    90.00000  Step:           1  Bead:       0 x_centroid{angstrom}  cell{atomic_unit}
       C -3.39026e-01 -1.11508e-01  8.26209e-02
       O  8.42048e-01  2.61544e-01 -1.83567e-01
       H -8.15425e-02  8.02189e-01 -6.56348e-01
       H -4.09421e-01 -9.56744e-01  7.67059e-01
       L -3.42224e-01  4.53378e-01 -2.94242e-01
       L  1.33553e-01 -2.22796e-02 -7.21813e-01
6
# CELL(abcABC):  459.05226   459.05226   459.05226    90.00000    90.00000    90.00000  Step:           2  Bead:       0 x_centroid{angstrom}  cell{atomic_unit}
       C -3.38164e-01 -1.09386e-01  8.44139e-02
       O  8.40654e-01  2.60231e-01 -1.85502e-01
       H -8.99992e-02  7.88074e-01 -6.51226e-01
       H -3.89010e-01 -9.47281e-01  7.71885e-01
       L -6.84154e-01  8.71525e-01 -6.36791e-01
       L  2.85167e-01 -5.87127e-02 -1.46588e+00
6
# CELL(abcABC):  459.05226   459.05226   459.05226    90.00000    90.00000    90.00000  Step:           3  Bead:       0 x_centroid{angstrom}  cell{atomic_unit}
       C -3.37312e-01 -1.07372e-01  8.65152e-02
       O  8.39397e-01  2.58933e-01 -1.87634e-01
       H -9.93768e-02  7.75922e-01 -6.46773e-01
       H -3.69688e-01 -9.38701e-01  7.76756e-01
       L -1.05580e+00  1.29626e+00 -9.09636e-01
       L  4.08681e-01 -1.66068e-01 -2.14662e+00
6
# CELL(abcABC):  459.05226   459.05226   459.05226    90.00000    90.00000    90.00000  Step:           4  Bead:       0 x_centroid{angstrom}  cell{atomic_unit}
       C -3.36151e-01 -1.05365e-01  8.84119e-02
       O  8.38090e-01  2.57576e-01 -1.89577e-01
       H -1.09795e-01  7.65754e-01 -6.44062e-01
       H -3.52252e-01 -9.31076e-01  7.82802e-01
       L -1.34757e+00  1.71883e+00 -1.14428e+00
       L  5.13064e-01 -2.94112e-01 -2.85928e+00
6
# CELL(abcABC):  459.05226   459.05226   459.05226    90.00000    90.00000    90.00000  Step:           5  Bead:       0 x_centroid{angstrom}  cell{atomic_unit}
       C -3.34702e-01 -1.03235e-01  9.06635e-02
       O  8.36804e-01  2.56122e-01 -1.91738e-01
       H -1.22165e-01  7.56057e-01 -6.43187e-01
       H -3.36668e-01 -9.23809e-01  7.89868e-01
       L -1.59701e+00  2.15466e+00 -1.36609e+00
       L  6.19861e-01 -4.54299e-01 -3.52260e+00
6
# CELL(abcABC):  459.05226   459.05226   459.05226    90.00000    90.00000    90.00000  Step:           6  Bead:       0 x_centroid{angstrom}  cell{atomic_unit}
       C -3.33158e-01 -1.01582e-01  9.28501e-02
       O  8.35857e-01  2.54880e-01 -1.93686e-01
       H -1.39174e-01  7.49146e-01 -6.45069e-01
       H -3.22999e-01 -9.17030e-01  7.97089e-01
       L -1.80061e+00  2.56820e+00 -1.58091e+00
       L  7.73225e-01 -6.16701e-01 -4.15349e+00
6
# CELL(abcABC):  459.05226   459.05226   459.05226    90.00000    90.00000    90.00000  Step:           7  Bead:       0 x_centroid{angstrom}  cell{atomic_unit}
       C -3.31736e-01 -1.00189e-01  9.51637e-02
       O  8.35343e-01  2.53761e-01 -1.95537e-01
       H -1.59099e-01  7.44413e-01 -6.50156e-01
       H -3.11839e-01 -9.11277e-01  8.04403e-01
       L -1.96523e+00  2.95408e+00 -1.81038e+00
       L  9.10282e-01 -7.55122e-01 -4.70886e+00
6
# CELL(abcABC):  459.05226   459.05226   459.05226    90.00000    90.00000    90.00000  Step:           8  Bead:       0 x_centroid{angstrom}  cell{atomic_unit}
       C -3.30022e-01 -9.86793e-02  9.79234e-02
       O  8.35181e-01  2.52476e-01 -1.97607e-01
       H -1.84863e-01  7.41316e-01 -6.57201e-01
       H -3.03960e-01 -9.05900e-01  8.11824e-01
       L -2.08592e+00  3.30052e+00 -2.01842e+00
       L  1.09532e+00 -8.65259e-01 -5.21804e+00
6
# CELL(abcABC):  459.05226   459.05226   459.05226    90.00000    90.00000    90.00000  Step:           9  Bead:       0 x_centroid{angstrom}  cell{atomic_unit}
       C -3.28111e-01 -9.73144e-02  1.00653e-01
       O  8.35407e-01  2.51226e-01 -1.99650e-01
       H -2.16905e-01  7.40007e-01 -6.66144e-01
       H -2.98365e-01 -9.01132e-01  8.21027e-01
       L -2.13548e+00  3.65074e+00 -2.23417e+00
       L  1.29823e+00 -9.84840e-01 -5.67840e+00
6
# CELL(abcABC):  459.05226   459.05226   459.05226    90.00000    90.00000    90.00000  Step:          10  Bead:       0 x_centroid{angstrom}  cell{atomic_unit}
       C -3.25892e-01 -9.59196e-02  1.03181e-01
       O  8.36142e-01  2.49939e-01 -2.01503e-01
       H -2.57100e-01  7.39646e-01 -6.75785e-01
       H -2.96395e-01 -8.97092e-01  8.30322e-01
       L -2.10199e+00  4.02299e+00 -2.43127e+00
       L  1.48258e+00 -1.11568e+00 -6.13997e+00
6
# CELL(abcABC):  459.05226   459.05226   459.05226    90.00000    90.00000    90.00000  Step:          11  Bead:       0 x_centroid{angstrom}  cell{atomic_unit}
       C -3.22891e-01 -9.39955e-02  1.05469e-01
       O  8.37074e-01  2.48405e-01 -2.03281e-01
       H -3.05340e-01  7.38924e-01 -6.85235e-01
       H -2.98849e-01 -8.95025e-01  8.41028e-01
       L -2.03850e+00  4.34449e+00 -2.57001e+00
       L  1.66899e+00 -1.30340e+00 -6.54483e+00
6
# CELL(abcABC):  459.05226   459.05226   459.05226    90.00000    90.00000    90.00000  Step:          12  Bead:       0 x_centroid{angstrom}  cell{atomic_unit}
       C -3.19230e-01 -9.16707e-02  1.07277e-01
       O  8.38445e-01  2.46674e-01 -2.04801e-01
       H -3.63832e-01  7.36054e-01 -6.93711e-01
       H -3.05831e-01 -8.92469e-01  8.52309e-01
       L -2.01753e+00  4.66424e+00 -2.65763e+00
       L  1.82033e+00 -1.46440e+00 -6.86883e+00
6
# CELL(abcABC):  459.05226   459.05226   459.05226    90.00000    90.00000    90.00000  Step:          13  Bead:       0 x_centroid{angstrom}  cell{atomic_unit}
       C -3.14826e-01 -8.91456e-02  1.08591e-01
       O  8.40185e-01  2.44951e-01 -2.06050e-01
       H -4.33924e-01  7.29347e-01 -7.00039e-01
       H -3.15891e-01 -8.88561e-01  8.63006e-01
       L -2.00974e+00  4.90626e+00 -2.73215e+00
       L  1.91310e+00 -1.59217e+00 -7.16073e+00
6
# CELL(abcABC):  459.05226   459.05226   459.05226    90.00000    90.00000    90.00000  Step:          14  Bead:       0 x_centroid{angstrom}  cell{atomic_unit}
       C -3.09578e-01 -8.64394e-02  1.09212e-01
       O  8.42334e-01  2.43305e-01 -2.07031e-01
       H -5.16225e-01  7.19170e-01 -7.02706e-01
       H -3.30301e-01 -8.84547e-01  8.74035e-01
       L -1.95979e+00  5.09846e+00 -2.81320e+00
       L  1.96899e+00 -1.70413e+00 -7.42787e+00
6
# CELL(abcABC):  459.05226   459.05226   459.05226    90.00000    90.00000    90.00000  Step:          15  Bead:       0 x_centroid{angstrom}  cell{atomic_unit}
       C -3.03099e-01 -8.31545e-02  1.09317e-01
       O  8.44415e-01  2.41483e-01 -2.07810e-01
       H -6.08714e-01  7.04145e-01 -7.00740e-01
       H -3.48116e-01 -8.79790e-01  8.83279e-01
       L -1.86794e+00  5.24250e+00 -2.78062e+00
       L  1.98709e+00 -1.74874e+00 -7.66165e+00
6
# CELL(abcABC):  459.05226   459.05226   459.05226    90.00000    90.00000    90.00000  Step:          16  Bead:       0 x_centroid{angstrom}  cell{atomic_unit}
       C -2.95886e-01 -7.90779e-02  1.08733e-01
       O  8.46844e-01  2.39302e-01 -2.08298e-01
       H -7.10859e-01  6.84541e-01 -6.92902e-01
       H -3.70497e-01 -8.74188e-01  8.90209e-01
       L -1.84786e+00  5.36685e+00 -2.73985e+00
       L  2.00831e+00 -1.81748e+00 -7.79714e+00
6
# CELL(abcABC):  459.05226   459.05226   459.05226    90.00000    90.00000    90.00000  Step:          17  Bead:       0 x_centroid{angstrom}  cell{atomic_unit}
       C -2.87807e-01 -7.47077e-02  1.07554e-01
       O  8.49305e-01  2.37141e-01 -2.08674e-01
       H -8.20500e-01  6.58829e-01 -6.78671e-01
       H -3.96162e-01 -8.66243e-01  8.96017e-01
       L -1.85055e+00  5.43070e+00 -2.71219e+00
       L  1.97202e+00 -1.87559e+00 -7.86646e+00
6
# CELL(abcABC):  459.05226   459.05226   459.05226    90.00000    90.00000    90.00000  Step:          18  Bead:       0 x_centroid{angstrom}  cell{atomic_unit}
       C -2.79250e-01 -6.95474e-02  1.05472e-01
       O  8.51771e-01  2.34615e-01 -2.08639e-01
       H -9.33855e-01  6.26605e-01 -6.57841e-01
       H -4.23897e-01 -8.55446e-01  8.99418e-01
       L -1.81014e+00  5.48976e+00 -2.68866e+00
       L  1.89253e+00 -1.87018e+00 -7.84998e+00
6
# CELL(abcABC):  459.05226   459.05226   459.05226    90.00000    90.00000    90.00000  Step:          19  Bead:       0 x_centroid{angstrom}  cell{atomic_unit}
       C -2.70267e-01 -6.37254e-02  1.02763e-01
       O  8.54092e-01  2.31814e-01 -2.08494e-01
       H -1.04748e+00  5.88931e-01 -6.29361e-01
       H -4.54134e-01 -8.42696e-01  9.00864e-01
       L -1.73216e+00  5.47606e+00 -2.66186e+00
       L  1.76495e+00 -1.86042e+00 -7.77792e+00
6
# CELL(abcABC):  459.05226   459.05226   459.05226    90.00000    90.00000    90.00000  Step:          20  Bead:       0 x_centroid{angstrom}  cell{atomic_unit}
       C -2.61016e-01 -5.74033e-02  9.94639e-02
       O  8.56209e-01  2.28959e-01 -2.08204e-01
       H -1.15864e+00  5.44353e-01 -5.94059e-01
       H -4.86796e-01 -8.28165e-01  9.00202e-01
       L -1.63310e+00  5.46018e+00 -2.65593e+00
       L  1.66707e+00 -1.78509e+00 -7.63984e+00
6
# CELL(abcABC):  459.05226   459.05226   459.05226    90.00000    90.00000    90.00000  Step:          21  Bead:       0 x_centroid{angstrom}  cell{atomic_unit}
       C -2.52115e-01 -5.09711e-02  9.60542e-02
       O  8.58137e-01  2.26225e-01 -2.07985e-01
       H -1.26311e+00  4.92900e-01 -5.54223e-01
       H -5.18971e-01 -8.09970e-01  8.97396e-01
       L -1.55140e+00  5.44138e+00 -2.67488e+00
       L  1.51941e+00 -1.72567e+00 -7.40992e+00
6
# CELL(abcABC):  459.05226   459.05226   459.05226    90.00000    90.00000    90.00000  Step:          22  Bead:       0 x_centroid{angstrom}  cell{atomic_unit}
       C -2.43603e-01 -4.44204e-02  9.24302e-02
       O  8.59810e-01  2.23397e-01 -2.07661e-01
       H -1.35925e+00  4.38104e-01 -5.09974e-01
       H -5.50758e-01 -7.88358e-01  8.91006e-01
       L -1.47352e+00  5.40746e+00 -2.68691e+00
       L  1.33599e+00 -1.67023e+00 -7.05378e+00
6
# CELL(abcABC):  459.05226   459.05226   459.05226    90.00000    90.00000    90.00000  Step:          23  Bead:       0 x_centroid{angstrom}  cell{atomic_unit}
       C -2.35724e-01 -3.75214e-02  8.87538e-02
       O  8.61142e-01  2.20504e-01 -2.07335e-01
       H -1.44445e+00  3.79664e-01 -4.61897e-01
       H -5.80555e-01 -7.66205e-01  8.81333e-01
       L -1.41138e+00  5.30986e+00 -2.69621e+00
       L  1.21451e+00 -1.59470e+00 -6.64078e+00
6
# CELL(abcABC):  459.05226   459.05226   459.05226    90.00000    90.00000    90.00000  Step:          24  Bead:       0 x_centroid{angstrom}  cell{atomic_unit}
       C -2.29157e-01 -3.08567e-02  8.50837e-02
       O  8.62658e-01  2.17778e-01 -2.07079e-01
       H -1.51995e+00  3.19067e-01 -4.11519e-01
       H -6.07365e-01 -7.41720e-01  8.70333e-01
       L -1.32433e+00  5.18801e+00 -2.64530e+00
       L  1.11382e+00 -1.52100e+00 -6.13959e+00
6
# CELL(abcABC):  459.05226   459.05226   459.05226    90.00000    90.00000    90.00000  Step:          25  Bead:       0 x_centroid{angstrom}  cell{atomic_unit}
       C -2.24093e-01 -2.43119e-02  8.16333e-02
       O  8.64205e-01  2.15008e-01 -2.06998e-01
       H -1.58465e+00  2.59029e-01 -3.60157e-01
       H -6.27536e-01 -7.15645e-01  8.58451e-01
       L -1.23437e+00  5.03489e+00 -2.54147e+00
       L  9.55328e-01 -1.47549e+00 -5.60243e+00
6
# CELL(abcABC):  459.05226   459.05226   459.05226    90.00000    90.00000    90.00000  Step:          26  Bead:       0 x_centroid{angstrom}  cell{atomic_unit}
       C -2.20251e-01 -1.82202e-02  7.83097e-02
       O  8.65640e-01  2.12515e-01 -2.07136e-01
       H -1.63794e+00  2.00209e-01 -3.08637e-01
       H -6.42766e-01 -6.89787e-01  8.48313e-01
       L -1.15109e+00  4.81196e+00 -2.36243e+00
       L  8.05571e-01 -1.35556e+00 -5.02193e+00
6
# CELL(abcABC):  459.05226   459.05226   459.05226    90.00000    90.00000    90.00000  Step:          27  Bead:       0 x_centroid{angstrom}  cell{atomic_unit}
       C -2.17830e-01 -1.27159e-02  7.52034e-02
       O  8.67151e-01  2.10284e-01 -2.07422e-01
       H -1.68001e+00  1.43705e-01 -2.58953e-01
       H -6.53498e-01 -6.63367e-01  8.39714e-01
       L -1.05469e+00  4.51513e+00 -2.16000e+00
       L  6.57956e-01 -1.21468e+00 -4.36545e+00
6
# CELL(abcABC):  459.05226   459.05226   459.05226    90.00000    90.00000    90.00000  Step:          28  Bead:       0 x_centroid{angstrom}  cell{atomic_unit}
       C -2.16971e-01 -7.84700e-03  7.21115e-02
       O  8.68764e-01  2.08327e-01 -2.07637e-01
       H -1.71131e+00  9.18624e-02 -2.13266e-01
       H -6.58002e-01 -6.38406e-01  8.33822e-01
       L -9.90684e-01  4.22456e+00 -2.01369e+00
       L  5.31159e-01 -1.07747e+00 -3.66871e+00
6
# CELL(abcABC):  459.05226   459.05226   459.05226    90.00000    90.00000    90.00000  Step:          29  Bead:       0 x_centroid{angstrom}  cell{atomic_unit}
       C -2.17922e-01 -3.61036e-03  6.95993e-02
       O  8.70816e-01  2.06525e-01 -2.08293e-01
       H -1.73292e+00  4.52013e-02 -1.71119e-01
       H -6.57636e-01 -6.13496e-01  8.31566e-01
       L -8.61896e-01  3.90777e+00 -1.84085e+00
       L  3.94737e-01 -9.75993e-01 -3.00206e+00
6
# CELL(abcABC):  459.05226   459.05226   459.05226    90.00000    90.00000    90.00000  Step:          30  Bead:       0 x_centroid{angstrom}  cell{atomic_unit}
       C -2.20539e-01 -1.67959e-04  6.72666e-02
       O  8.73240e-01  2.05020e-01 -2.09015e-01
       H -1.74657e+00  3.68157e-03 -1.33951e-01
       H -6.51255e-01 -5.88967e-01  8.33192e-01
       L -7.53437e-01  3.51371e+00 -1.67008e+00
       L  2.39544e-01 -8.50254e-01 -2.32983e+00
6
# CELL(abcABC):  459.05226   459.05226   459.05226    90.00000    90.00000    90.00000  Step:          31  Bead:       0 x_centroid{angstrom}  cell{atomic_unit}
       C -2.24435e-01  2.81425e-03  6.53960e-02
       O  8.75647e-01  2.03649e-01 -2.09965e-01
       H -1.75188e+00 -3.14694e-02 -1.02925e-01
       H -6.37714e-01 -5.67437e-01  8.39030e-01
       L -6.18344e-01  3.13712e+00 -1.44872e+00
       L  1.11687e-01 -7.58540e-01 -1.60567e+00
6
# CELL(abcABC):  459.05226   459.05226   459.05226    90.00000    90.00000    90.00000  Step:          32  Bead:       0 x_centroid{angstrom}  cell{atomic_unit}
       C -2.29677e-01  5.37342e-03  6.41129e-02
       O  8.78241e-01  2.02401e-01 -2.11386e-01
       H -1.74931e+00 -5.98135e-02 -7.80555e-02
       H -6.19009e-01 -5.49603e-01  8.51479e-01
       L -4.95941e-01  2.76620e+00 -1.20224e+00
       L -1.39878e-02 -6.92047e-01 -8.92944e-01
6
# CELL(abcABC):  459.05226   459.05226   459.05226    90.00000    90.00000    90.00000  Step:          33  Bead:       0 x_centroid{angstrom}  cell{atomic_unit}
       C -2.36228e-01  7.53033e-03  6.34208e-02
       O  8.81029e-01  2.01256e-01 -2.13284e-01
       H -1.73920e+00 -8.22246e-02 -6.04603e-02
       H -5.95298e-01 -5.34570e-01  8.71750e-01
       L -3.54381e-01  2.40764e+00 -9.92240e-01
       L -1.72983e-01 -6.24195e-01 -1.52806e-01
6
# CELL(abcABC):  459.05226   459.05226   459.05226    90.00000    90.00000    90.00000  Step:          34  Bead:       0 x_centroid{angstrom}  cell{atomic_unit}
       C -2.43967e-01  9.30121e-03  6.34614e-02
       O  8.83827e-01  2.00216e-01 -2.15636e-01
       H -1.72163e+00 -9.85723e-02 -5.04974e-02
       H -5.65099e-01 -5.22626e-01  8.98155e-01
       L -1.24422e-01  2.01908e+00 -8.27094e-01
       L -3.18405e-01 -5.72126e-01  5.64746e-01
6
# CELL(abcABC):  459.05226   459.05226   459.05226    90.00000    90.00000    90.00000  Step:          35  Bead:       0 x_centroid{angstrom}  cell{atomic_unit}
       C -2.52372e-01  1.06141e-02  6.41143e-02
       O  8.86263e-01  1.99275e-01 -2.18431e-01
       H -1.69591e+00 -1.09242e-01 -4.75277e-02
       H -5.29356e-01 -5.12520e-01  9.31298e-01
       L  6.65082e-02  1.69657e+00 -6.99841e-01
       L -4.67596e-01 -5.21610e-01  1.30190e+00
6
# CELL(abcABC):  459.05226   459.05226   459.05226    90.00000    90.00000    90.00000  Step:          36  Bead:       0 x_centroid{angstrom}  cell{atomic_unit}
       C -2.61425e-01  1.10216e-02  6.52765e-02
       O  8.88325e-01  1.98658e-01 -2.21501e-01
       H -1.66028e+00 -1.13398e-01 -5.19378e-02
       H -4.89859e-01 -5.03283e-01  9.70089e-01
       L  1.72017e-01  1.33972e+00 -5.92549e-01
       L -5.75694e-01 -4.30466e-01  2.11986e+00
6
# CELL(abcABC):  459.05226   459.05226   459.05226    90.00000    90.00000    90.00000  Step:          37  Bead:       0 x_centroid{angstrom}  cell{atomic_unit}
       C -2.70986e-01  1.06886e-02  6.69801e-02
       O  8.90033e-01  1.98255e-01 -2.24866e-01
       H -1.61604e+00 -1.11387e-01 -6.23641e-02
       H -4.47252e-01 -4.94739e-01  1.01314e+00
       L  2.55206e-01  8.83312e-01 -4.90810e-01
       L -6.80566e-01 -3.08259e-01  2.91145e+00
6
# CELL(abcABC):  459.05226   459.05226   459.05226    90.00000    90.00000    90.00000  Step:          38  Bead:       0 x_centroid{angstrom}  cell{atomic_unit}
       C -2.80766e-01  9.82624e-03  6.94980e-02
       O  8.91216e-01  1.97855e-01 -2.28599e-01
       H -1.56280e+00 -1.02576e-01 -7.82355e-02
       H -4.02711e-01 -4.86760e-01  1.05781e+00
       L  3.51919e-01  4.78866e-01 -4.52662e-01
       L -8.07618e-01 -2.22790e-01  3.71036e+00
6
# CELL(abcABC):  459.05226   459.05226   459.05226    90.00000    90.00000    90.00000  Step:          39  Bead:       0 x_centroid{angstrom}  cell{atomic_unit}
       C -2.90484e-01  8.43282e-03  7.32276e-02
       O  8.91754e-01  1.97521e-01 -2.32829e-01
       H -1.50042e+00 -8.97990e-02 -1.01316e-01
       H -3.57824e-01 -4.77454e-01  1.10318e+00
       L  4.10867e-01  1.11403e-01 -4.41325e-01
       L -9.02640e-01 -1.66748e-01  4.47084e+00
6
# CELL(abcABC):  459.05226   459.05226   459.05226    90.00000    90.00000    90.00000  Step:          40  Bead:       0 x_centroid{angstrom}  cell{atomic_unit}
       C -2.99803e-01  6.30890e-03  7.77412e-02
       O  8.91258e-01  1.97301e-01 -2.37184e-01
       H -1.42845e+00 -7.12824e-02 -1.30621e-01
       H -3.10885e-01 -4.67019e-01  1.14742e+00
       L  4.91796e-01 -2.39496e-01 -4.25889e-01
       L -9.63300e-01 -9.23082e-02  5.19272e+00
6
# CELL(abcABC):  459.05226   459.05226   459.05226    90.00000    90.00000    90.00000  Step:          41  Bead:       0 x_centroid{angstrom}  cell{atomic_unit}
       C -3.07884e-01  3.22738e-03  8.35076e-02
       O  8.89504e-01  1.97317e-01 -2.41881e-01
       H -1.35069e+00 -4.89484e-02 -1.65648e-01
       H -2.64531e-01 -4.52682e-01  1.18795e+00
       L  5.85618e-01 -6.93216e-01 -3.99806e-01
       L -1.01306e+00 -1.32276e-02  5.79644e+00
6
# CELL(abcABC):  459.05226   459.05226   459.05226    90.00000    90.00000    90.00000  Step:          42  Bead:       0 x_centroid{angstrom}  cell{atomic_unit}
       C -3.14229e-01 -5.88002e-04  9.03622e-02
       O  8.86679e-01  1.97493e-01 -2.46713e-01
       H -1.27410e+00 -2.28394e-02 -2.04791e-01
       H -2.20693e-01 -4.35942e-01  1.22179e+00
       L  6.67233e-01 -1.13680e+00 -3.38127e-01
       L -1.03744e+00  8.66337e-02  6.31145e+00
6
# CELL(abcABC):  459.05226   459.05226   459.05226    90.00000    90.00000    90.00000  Step:          43  Bead:       0 x_centroid{angstrom}  cell{atomic_unit}
       C -3.18440e-01 -4.82388e-03  9.83892e-02
       O  8.82909e-01  1.97783e-01 -2.51591e-01
       H -1.20405e+00  4.90606e-03 -2.50689e-01
       H -1.80751e-01 -4.17602e-01  1.24915e+00
       L  7.35041e-01 -1.61736e+00 -2.23138e-01
       L -1.07374e+00  1.69349e-01  6.79463e+00
6
# CELL(abcABC):  459.05226   459.05226   459.05226    90.00000    90.00000    90.00000  Step:          44  Bead:       0 x_centroid{angstrom}  cell{atomic_unit}
       C -3.19484e-01 -9.16659e-03  1.07914e-01
       O  8.78111e-01  1.97911e-01 -2.56532e-01
       H -1.14880e+00  3.39144e-02 -3.05947e-01
       H -1.47443e-01 -3.96623e-01  1.26907e+00
       L  7.82953e-01 -2.16583e+00 -1.54706e-01
       L -1.05084e+00  2.28883e-01  7.21339e+00
6
# CELL(abcABC):  459.05226   459.05226   459.05226    90.00000    90.00000    90.00000  Step:          45  Bead:       0 x_centroid{angstrom}  cell{atomic_unit}
       C -3.16901e-01 -1.36798e-02  1.19210e-01
       O  8.72223e-01  1.97987e-01 -2.61721e-01
       H -1.11376e+00  6.35730e-02 -3.72279e-01
       H -1.19830e-01 -3.73438e-01  1.28296e+00
       L  8.64000e-01 -2.67131e+00 -8.57862e-02
       L -1.03149e+00  2.45989e-01  7.55143e+00
6
# CELL(abcABC):  459.05226   459.05226   459.05226    90.00000    90.00000    90.00000  Step:          46  Bead:       0 x_centroid{angstrom}  cell{atomic_unit}
       C -3.11059e-01 -1.84278e-02  1.31636e-01
       O  8.65270e-01  1.97949e-01 -2.66801e-01
       H -1.09476e+00  9.60218e-02 -4.46955e-01
       H -9.81311e-02 -3.48449e-01  1.29001e+00
       L  8.99774e-01 -3.10183e+00  2.48614e-02
       L -9.79326e-01  1.99522e-01  7.76799e+00
6
# CELL(abcABC):  459.05226   459.05226   459.05226    90.00000    90.00000    90.00000  Step:          47  Bead:       0 x_centroid{angstrom}  cell{atomic_unit}
       C -3.02337e-01 -2.30661e-02  1.45175e-01
       O  8.57435e-01  1.97768e-01 -2.71986e-01
       H -1.08728e+00  1.28724e-01 -5.26921e-01
       H -8.51737e-02 -3.22772e-01  1.29081e+00
       L  8.77001e-01 -3.52668e+00  1.40604e-01
       L -9.92288e-01  1.79349e-01  7.89424e+00
6
# CELL(abcABC):  459.05226   459.05226   459.05226    90.00000    90.00000    90.00000  Step:          48  Bead:       0 x_centroid{angstrom}  cell{atomic_unit}
       C -2.91945e-01 -2.76407e-02  1.59080e-01
       O  8.49128e-01  1.97542e-01 -2.77013e-01
       H -1.08375e+00  1.61145e-01 -6.07057e-01
       H -8.06681e-02 -2.96891e-01  1.28494e+00
       L  8.20628e-01 -3.90995e+00  2.81679e-01
       L -9.26490e-01  2.02183e-01  7.94520e+00
6
# CELL(abcABC):  459.05226   459.05226   459.05226    90.00000    90.00000    90.00000  Step:          49  Bead:       0 x_centroid{angstrom}  cell{atomic_unit}
       C -2.80205e-01 -3.16252e-02  1.73013e-01
       O  8.40485e-01  1.97032e-01 -2.82275e-01
       H -1.08269e+00  1.90942e-01 -6.80066e-01
       H -8.44256e-02 -2.70873e-01  1.27538e+00
       L  7.41856e-01 -4.31856e+00  4.08953e-01
       L -8.71253e-01  1.58326e-01  7.96551e+00
6
# CELL(abcABC):  459.05226   459.05226   459.05226    90.00000    90.00000    90.00000  Step:          50  Bead:       0 x_centroid{angstrom}  cell{atomic_unit}
       C -2.67481e-01 -3.52688e-02  1.86211e-01
       O  8.31474e-01  1.96445e-01 -2.87461e-01
       H -1.08018e+00  2.18043e-01 -7.42986e-01
       H -9.55367e-02 -2.45013e-01  1.26332e+00
       L  6.37284e-01 -4.67392e+00  5.00772e-01
       L -7.25589e-01  1.17130e-01  7.92926e+00
6
# CELL(abcABC):  459.05226   459.05226   459.05226    90.00000    90.00000    90.00000  Step:          51  Bead:       0 x_centroid{angstrom}  cell{atomic_unit}
       C -2.54400e-01 -3.83453e-02  1.98028e-01
       O  8.22381e-01  1.95726e-01 -2.92153e-01
       H -1.07546e+00  2.42386e-01 -7.95709e-01
       H -1.11774e-01 -2.21107e-01  1.24968e+00
       L  4.55044e-01 -4.98750e+00  6.10076e-01
       L -5.63660e-01  1.00231e-01  7.87493e+00
6
# CELL(abcABC):  459.05226   459.05226   459.05226    90.00000    90.00000    90.00000  Step:          52  Bead:       0 x_centroid{angstrom}  cell{atomic_unit}
       C -2.41146e-01 -4.09617e-02  2.08398e-01
       O  8.13318e-01  1.95026e-01 -2.96606e-01
       H -1.06652e+00  2.62639e-01 -8.37090e-01
       H -1.34771e-01 -1.98923e-01  1.23819e+00
       L  2.81348e-01 -5.25859e+00  6.94997e-01
       L -4.46318e-01  8.15867e-02  7.76107e+00
6
# CELL(abcABC):  459.05226   459.05226   459.05226    90.00000    90.00000    90.00000  Step:          53  Bead:       0 x_centroid{angstrom}  cell{atomic_unit}
       C -2.27812e-01 -4.30565e-02  2.17407e-01
       O  8.04307e-01  1.94297e-01 -3.01023e-01
       H -1.05481e+00  2.78252e-01 -8.67488e-01
       H -1.62310e-01 -1.77859e-01  1.23137e+00
       L  1.00416e-01 -5.48389e+00  7.72037e-01
       L -3.26572e-01  6.67302e-02  7.63527e+00
6
# CELL(abcABC):  459.05226   459.05226   459.05226    90.00000    90.00000    90.00000  Step:          54  Bead:       0 x_centroid{angstrom}  cell{atomic_unit}
       C -2.14707e-01 -4.43823e-02  2.24817e-01
       O  7.95732e-01  1.93431e-01 -3.05356e-01
       H -1.04165e+00  2.89722e-01 -8.86110e-01
       H -1.95494e-01 -1.59635e-01  1.23052e+00
       L -3.57219e-02 -5.68734e+00  8.38777e-01
       L -2.21332e-01 -8.10694e-03  7.48380e+00
6
# CELL(abcABC):  459.05226   459.05226   459.05226    90.00000    90.00000    90.00000  Step:          55  Bead:       0 x_centroid{angstrom}  cell{atomic_unit}
       C -2.02109e-01 -4.51352e-02  2.30485e-01
       O  7.87926e-01  1.92548e-01 -3.09596e-01
       H -1.02998e+00  2.96316e-01 -8.93765e-01
       H -2.33347e-01 -1.43114e-01  1.23799e+00
       L -1.93149e-01 -5.85332e+00  1.02163e+00
       L -1.06516e-01 -8.74848e-02  7.23272e+00
6
# CELL(abcABC):  459.05226   459.05226   459.05226    90.00000    90.00000    90.00000  Step:          56  Bead:       0 x_centroid{angstrom}  cell{atomic_unit}
       C -1.90463e-01 -4.52358e-02  2.34578e-01
       O  7.81065e-01  1.91630e-01 -3.13951e-01
       H -1.01824e+00  2.97341e-01 -8.89003e-01
       H -2.74948e-01 -1.28286e-01  1.25367e+00
       L -3.44924e-01 -5.93268e+00  1.19191e+00
       L  5.22060e-02 -1.57492e-01  6.87672e+00
6
# CELL(abcABC):  459.05226   459.05226   459.05226    90.00000    90.00000    90.00000  Step:          57  Bead:       0 x_centroid{angstrom}  cell{atomic_unit}
       C -1.79700e-01 -4.47618e-02  2.37311e-01
       O  7.75126e-01  1.90767e-01 -3.18397e-01
       H -1.00745e+00  2.93079e-01 -8.72926e-01
       H -3.19781e-01 -1.15913e-01  1.27570e+00
       L -4.27159e-01 -5.98099e+00  1.38993e+00
       L  2.22583e-01 -2.15417e-01  6.49354e+00
6
# CELL(abcABC):  459.05226   459.05226   459.05226    90.00000    90.00000    90.00000  Step:          58  Bead:       0 x_centroid{angstrom}  cell{atomic_unit}
       C -1.70293e-01 -4.36978e-02  2.38998e-01
       O  7.70438e-01  1.89785e-01 -3.22863e-01
       H -9.99126e-01  2.84810e-01 -8.47707e-01
       H -3.65850e-01 -1.04748e-01  1.30142e+00
       L -5.02462e-01 -5.90559e+00  1.57822e+00
       L  4.30750e-01 -2.64242e-01  6.02918e+00
6
# CELL(abcABC):  459.05226   459.05226   459.05226    90.00000    90.00000    90.00000  Step:          59  Bead:       0 x_centroid{angstrom}  cell{atomic_unit}
       C -1.62902e-01 -4.23540e-02  2.40270e-01
       O  7.67394e-01  1.89009e-01 -3.27835e-01
       H -9.92334e-01  2.71881e-01 -8.11301e-01
       H -4.12450e-01 -9.55732e-02  1.32904e+00
       L -5.96062e-01 -5.75667e+00  1.69164e+00
       L  6.21167e-01 -3.08427e-01  5.43663e+00
6
# CELL(abcABC):  459.05226   459.05226   459.05226    90.00000    90.00000    90.00000  Step:          60  Bead:       0 x_centroid{angstrom}  cell{atomic_unit}
       C -1.57632e-01 -4.07958e-02  2.41125e-01
       O  7.65904e-01  1.88511e-01 -3.33018e-01
       H -9.87038e-01  2.53567e-01 -7.63727e-01
       H -4.56969e-01 -8.79691e-02  1.35383e+00
       L -6.44354e-01 -5.57899e+00  1.80204e+00
       L  7.96968e-01 -4.11629e-01  4.81044e+00
6
# CELL(abcABC):  459.05226   459.05226   459.05226    90.00000    90.00000    90.00000  Step:          61  Bead:       0 x_centroid{angstrom}  cell{atomic_unit}
       C -1.54136e-01 -3.88538e-02  2.41693e-01
       O  7.65920e-01  1.88068e-01 -3.38400e-01
       H -9.84996e-01  2.30401e-01 -7.07035e-01
       H -5.00977e-01 -8.09483e-02  1.37604e+00
       L -7.11073e-01 -5.38462e+00  1.91237e+00
       L  9.79584e-01 -5.40622e-01  4.24960e+00
6
# CELL(abcABC):  459.05226   459.05226   459.05226    90.00000    90.00000    90.00000  Step:          62  Bead:       0 x_centroid{angstrom}  cell{atomic_unit}
       C -1.53028e-01 -3.64745e-02  2.42276e-01
       O  7.67545e-01  1.87639e-01 -3.43946e-01
       H -9.84079e-01  2.01910e-01 -6.41550e-01
       H -5.40914e-01 -7.40544e-02  1.39198e+00
       L -8.26330e-01 -5.08844e+00  1.92780e+00
       L  1.13629e+00 -7.37620e-01  3.63299e+00
6
# CELL(abcABC):  459.05226   459.05226   459.05226    90.00000    90.00000    90.00000  Step:          63  Bead:       0 x_centroid{angstrom}  cell{atomic_unit}
       C -1.54456e-01 -3.38449e-02  2.42937e-01
       O  7.70884e-01  1.87261e-01 -3.49601e-01
       H -9.85490e-01  1.69001e-01 -5.69655e-01
       H -5.75525e-01 -6.65495e-02  1.40230e+00
       L -8.78461e-01 -4.78831e+00  1.94418e+00
       L  1.26906e+00 -8.98924e-01  3.00456e+00
6
# CELL(abcABC):  459.05226   459.05226   459.05226    90.00000    90.00000    90.00000  Step:          64  Bead:       0 x_centroid{angstrom}  cell{atomic_unit}
       C -1.58180e-01 -3.07495e-02  2.43581e-01
       O  7.75805e-01  1.86842e-01 -3.55261e-01
       H -9.90254e-01  1.32829e-01 -4.90387e-01
       H -6.04529e-01 -6.06696e-02  1.40553e+00
       L -9.39529e-01 -4.47248e+00  1.98667e+00
       L  1.37573e+00 -1.11535e+00  2.37612e+00
6
# CELL(abcABC):  459.05226   459.05226   459.05226    90.00000    90.00000    90.00000  Step:          65  Bead:       0 x_centroid{angstrom}  cell{atomic_unit}
       C -1.63882e-01 -2.72994e-02  2.44292e-01
       O  7.82101e-01  1.86362e-01 -3.60897e-01
       H -1.00008e+00  9.39191e-02 -4.07389e-01
       H -6.26707e-01 -5.53114e-02  1.40384e+00
       L -1.00179e+00 -4.15156e+00  2.01749e+00
       L  1.42727e+00 -1.30515e+00  1.75183e+00
6
# CELL(abcABC):  459.05226   459.05226   459.05226    90.00000    90.00000    90.00000  Step:          66  Bead:       0 x_centroid{angstrom}  cell{atomic_unit}
       C -1.70928e-01 -2.35893e-02  2.45327e-01