6
# CELL(abcABC):  459.05226   459.05226   459.05226    90.00000    90.00000    90.00000  Step:           0  Bead:       0 x_centroid{angstrom}  cell{atomic_unit}
       C -3.39887e-01 -1.13437e-01  8.06659e-02
       O  8.43483e-01  2.62672e-01 -1.81512e-01
       H -7.35799e-02  8.16467e-01 -6.61432e-01
       H -4.30016e-01 -9.65701e-01  7.62278e-01
       L  0.00000e+00  0.00000e+00  0.00000e+00
       L  0.00000e+00  0.00000e+00  0.00000e+00
6
# CELL(abcABC):  459.05226   459.05226   459.05226    90.00000    90.00000    90.00000  Step:           1  Bead:       0 x_centroid{angstrom}  cell{atomic_unit}
       C -3.38143e-01 -1.15115e-01  8.06752e-02
       O  8.42194e-01  2.64764e-01 -1.81956e-01
       H -7.73306e-02  8.13106e-01 -6.51986e-01
       H -4.25912e-01 -9.75573e-01  7.59739e-01
       L -8.44420e-01 -1.27063e-01  3.27349e-01
       L -4.00981e-01  1.55064e-01 -2.96507e-01
6
# CELL(abcABC):  459.05226   459.05226   459.05226    90.00000    90.00000    90.00000  Step:           2  Bead:       0 x_centroid{angstrom}  cell{atomic_unit}
       C -3.36568e-01 -1.16785e-01  8.09007e-02
       O  8.41058e-01  2.66862e-01 -1.82582e-01
       H -8.14902e-02  8.09058e-01 -6.42837e-01
       H -4.21767e-01 -9.84906e-01  7.57869e-01
       L -1.74000e+00 -2.57490e-01  6.25146e-01
       L -8.30570e-01  2.28446e-01 -6.39254e-01
6
# CELL(abcABC):  459.05226   459.05226   459.05226    90.00000    90.00000    90.00000  Step:           3  Bead:       0 x_centroid{angstrom}  cell{atomic_unit}
       C -3.35132e-01 -1.18499e-01  8.12439e-02
       O  8.40067e-01  2.68914e-01 -1.83240e-01
       H -8.51442e-02  8.05491e-01 -6.33855e-01
       H -4.18729e-01 -9.93364e-01  7.55287e-01
       L -2.63276e+00 -4.52406e-01  8.55868e-01
       L -1.33454e+00  2.19621e-01 -9.41082e-01
6
# CELL(abcABC):  459.05226   459.05226   459.05226    90.00000    90.00000    90.00000  Step:           4  Bead:       0 x_centroid{angstrom}  cell{atomic_unit}
       C -3.33642e-01 -1.20255e-01  8.18538e-02
       O  8.39178e-01  2.70833e-01 -1.84027e-01
       H -9.12041e-02  8.03085e-01 -6.25481e-01
       H -4.15563e-01 -1.00037e+00  7.52174e-01
       L -3.51227e+00 -6.25875e-01  1.10971e+00
       L -1.83650e+00  1.70152e-01 -1.27934e+00
6
# CELL(abcABC):  459.05226   459.05226   459.05226    90.00000    90.00000    90.00000  Step:           5  Bead:       0 x_centroid{angstrom}  cell{atomic_unit}
       C -3.32303e-01 -1.22227e-01  8.27779e-02
       O  8.38317e-01  2.72727e-01 -1.84895e-01
       H -9.67093e-02  8.02076e-01 -6.18406e-01
       H -4.11607e-01 -1.00580e+00  7.47873e-01
       L -4.35943e+00 -8.07781e-01  1.40834e+00
       L -2.36049e+00  1.11382e-01 -1.58768e+00
6
# CELL(abcABC):  459.05226   459.05226   459.05226    90.00000    90.00000    90.00000  Step:           6  Bead:       0 x_centroid{angstrom}  cell{atomic_unit}
       C -3.30903e-01 -1.24171e-01  8.37759e-02
       O  8.37476e-01  2.74450e-01 -1.85670e-01
       H -1.03587e-01  8.02394e-01 -6.13291e-01
       H -4.07387e-01 -1.01021e+00  7.43168e-01
       L -5.16004e+00 -9.05983e-01  1.68497e+00
       L -2.78702e+00  3.51385e-02 -1.85843e+00
6
# CELL(abcABC):  459.05226   459.05226   459.05226    90.00000    90.00000    90.00000  Step:           7  Bead:       0 x_centroid{angstrom}  cell{atomic_unit}
       C -3.29785e-01 -1.26217e-01  8.50427e-02
       O  8.36996e-01  2.76062e-01 -1.86400e-01
       H -1.13098e-01  8.04667e-01 -6.10188e-01
       H -4.02955e-01 -1.01359e+00  7.36550e-01
       L -5.91173e+00 -9.91643e-01  1.96022e+00
       L -3.16703e+00 -7.57957e-02 -2.12201e+00
6
# CELL(abcABC):  459.05226   459.05226   459.05226    90.00000    90.00000    90.00000  Step:           8  Bead:       0 x_centroid{angstrom}  cell{atomic_unit}
       C -3.28769e-01 -1.28194e-01  8.63748e-02
       O  8.36652e-01  2.77590e-01 -1.87128e-01
       H -1.23510e-01  8.06946e-01 -6.07241e-01
       H -3.98648e-01 -1.01646e+00  7.29322e-01
       L -6.61347e+00 -1.06213e+00  2.18051e+00
       L -3.46637e+00 -1.90804e-01 -2.41951e+00
6
# CELL(abcABC):  459.05226   459.05226   459.05226    90.00000    90.00000    90.00000  Step:           9  Bead:       0 x_centroid{angstrom}  cell{atomic_unit}
       C -3.27758e-01 -1.30030e-01  8.76066e-02
       O  8.36453e-01  2.78905e-01 -1.87688e-01
       H -1.35403e-01  8.11405e-01 -6.05825e-01
       H -3.95143e-01 -1.01979e+00  7.22161e-01
       L -7.27190e+00 -1.11957e+00  2.35976e+00
       L -3.71383e+00 -3.48305e-01 -2.66274e+00
6
# CELL(abcABC):  459.05226   459.05226   459.05226    90.00000    90.00000    90.00000  Step:          10  Bead:       0 x_centroid{angstrom}  cell{atomic_unit}
       C -3.26534e-01 -1.31882e-01  8.89300e-02
       O  8.36213e-01  2.80110e-01 -1.88291e-01
       H -1.50568e-01  8.17235e-01 -6.03879e-01
       H -3.90333e-01 -1.02260e+00  7.14044e-01
       L -7.85382e+00 -1.11000e+00  2.51212e+00
       L -3.92537e+00 -5.24855e-01 -2.88331e+00
6
# CELL(abcABC):  459.05226   459.05226   459.05226    90.00000    90.00000    90.00000  Step:          11  Bead:       0 x_centroid{angstrom}  cell{atomic_unit}
       C -3.25529e-01 -1.33684e-01  8.99074e-02
       O  8.36387e-01  2.81210e-01 -1.88745e-01
       H -1.69899e-01  8.23952e-01 -6.01825e-01
       H -3.85393e-01 -1.02516e+00  7.07621e-01
       L -8.31158e+00 -1.16224e+00  2.63670e+00
       L -4.09250e+00 -7.25668e-01 -3.11411e+00
6
# CELL(abcABC):  459.05226   459.05226   459.05226    90.00000    90.00000    90.00000  Step:          12  Bead:       0 x_centroid{angstrom}  cell{atomic_unit}
       C -3.24307e-01 -1.35169e-01  9.07838e-02
       O  8.36586e-01  2.82156e-01 -1.89074e-01
       H -1.92135e-01  8.29422e-01 -6.01121e-01
       H -3.80579e-01 -1.02783e+00  7.01665e-01
       L -8.71152e+00 -1.19510e+00  2.80603e+00
       L -4.23484e+00 -9.00948e-01 -3.24799e+00
6
# CELL(abcABC):  459.05226   459.05226   459.05226    90.00000    90.00000    90.00000  Step:          13  Bead:       0 x_centroid{angstrom}  cell{atomic_unit}
       C -3.22716e-01 -1.36322e-01  9.17849e-02
       O  8.36882e-01  2.82900e-01 -1.89577e-01
       H -2.18848e-01  8.34600e-01 -5.98870e-01
       H -3.77278e-01 -1.03101e+00  6.95448e-01
       L -9.05513e+00 -1.19994e+00  2.94918e+00
       L -4.34875e+00 -1.05936e+00 -3.34464e+00
6
# CELL(abcABC):  459.05226   459.05226   459.05226    90.00000    90.00000    90.00000  Step:          14  Bead:       0 x_centroid{angstrom}  cell{atomic_unit}
       C -3.20864e-01 -1.36724e-01  9.23673e-02
       O  8.37436e-01  2.83281e-01 -1.89948e-01
       H -2.51478e-01  8.37369e-01 -5.94384e-01
       H -3.75343e-01 -1.03495e+00  6.89858e-01
       L -9.33998e+00 -1.21481e+00  3.05068e+00
       L -4.38398e+00 -1.18306e+00 -3.35577e+00
6
# CELL(abcABC):  459.05226   459.05226   459.05226    90.00000    90.00000    90.00000  Step:          15  Bead:       0 x_centroid{angstrom}  cell{atomic_unit}
       C -3.18972e-01 -1.36573e-01  9.21459e-02
       O  8.38483e-01  2.83437e-01 -1.89864e-01
       H -2.91044e-01  8.38059e-01 -5.88731e-01
       H -3.74849e-01 -1.03988e+00  6.85438e-01
       L -9.53787e+00 -1.21557e+00  3.17034e+00
       L -4.33618e+00 -1.23679e+00 -3.34337e+00
6
# CELL(abcABC):  459.05226   459.05226   459.05226    90.00000    90.00000    90.00000  Step:          16  Bead:       0 x_centroid{angstrom}  cell{atomic_unit}
       C -3.16242e-01 -1.36022e-01  9.15113e-02
       O  8.39664e-01  2.83457e-01 -1.89711e-01
       H -3.40490e-01  8.36138e-01 -5.79397e-01
       H -3.76697e-01 -1.04476e+00  6.81182e-01
       L -9.61991e+00 -1.28544e+00  3.27668e+00
       L -4.22911e+00 -1.31683e+00 -3.32971e+00
6
# CELL(abcABC):  459.05226   459.05226   459.05226    90.00000    90.00000    90.00000  Step:          17  Bead:       0 x_centroid{angstrom}  cell{atomic_unit}
       C -3.13001e-01 -1.34905e-01  9.02228e-02
       O  8.41141e-01  2.83283e-01 -1.89283e-01
       H -3.99319e-01  8.30669e-01 -5.67087e-01
       H -3.80014e-01 -1.04976e+00  6.77385e-01
       L -9.59939e+00 -1.31503e+00  3.32807e+00
       L -4.09980e+00 -1.42617e+00 -3.31914e+00
6
# CELL(abcABC):  459.05226   459.05226   459.05226    90.00000    90.00000    90.00000  Step:          18  Bead:       0 x_centroid{angstrom}  cell{atomic_unit}
       C -3.08640e-01 -1.32799e-01  8.82176e-02
       O  8.42639e-01  2.82658e-01 -1.88529e-01
       H -4.68581e-01  8.20531e-01 -5.50680e-01
       H -3.86633e-01 -1.05469e+00  6.72898e-01
       L -9.49345e+00 -1.36791e+00  3.32812e+00
       L -3.95218e+00 -1.57931e+00 -3.29650e+00
6
# CELL(abcABC):  459.05226   459.05226   459.05226    90.00000    90.00000    90.00000  Step:          19  Bead:       0 x_centroid{angstrom}  cell{atomic_unit}
       C -3.03061e-01 -1.29935e-01  8.54941e-02
       O  8.44090e-01  2.81592e-01 -1.87446e-01
       H -5.49935e-01  8.06337e-01 -5.31107e-01
       H -3.95021e-01 -1.05760e+00  6.68598e-01
       L -9.28945e+00 -1.41551e+00  3.26100e+00
       L -3.72867e+00 -1.74647e+00 -3.24462e+00
6
# CELL(abcABC):  459.05226   459.05226   459.05226    90.00000    90.00000    90.00000  Step:          20  Bead:       0 x_centroid{angstrom}  cell{atomic_unit}
       C -2.96408e-01 -1.26596e-01  8.21889e-02
       O  8.45602e-01  2.80308e-01 -1.86013e-01
       H -6.41430e-01  7.88200e-01 -5.09095e-01
       H -4.07137e-01 -1.05877e+00  6.63302e-01
       L -8.97935e+00 -1.42684e+00  3.07889e+00
       L -3.43352e+00 -1.91568e+00 -3.21736e+00
6
# CELL(abcABC):  459.05226   459.05226   459.05226    90.00000    90.00000    90.00000  Step:          21  Bead:       0 x_centroid{angstrom}  cell{atomic_unit}
       C -2.88664e-01 -1.21966e-01  7.81977e-02
       O  8.47036e-01  2.78311e-01 -1.84251e-01
       H -7.42474e-01  7.64105e-01 -4.83330e-01
       H -4.21568e-01 -1.05806e+00  6.57199e-01
       L -8.56042e+00 -1.44167e+00  2.89158e+00
       L -3.08582e+00 -2.05388e+00 -3.15300e+00
6
# CELL(abcABC):  459.05226   459.05226   459.05226    90.00000    90.00000    90.00000  Step:          22  Bead:       0 x_centroid{angstrom}  cell{atomic_unit}
       C -2.80331e-01 -1.16682e-01  7.35846e-02
       O  8.48639e-01  2.75983e-01 -1.82295e-01
       H -8.50673e-01  7.34570e-01 -4.53377e-01
       H -4.38610e-01 -1.05448e+00  6.51267e-01
       L -8.04008e+00 -1.40097e+00  2.66297e+00
       L -2.67120e+00 -2.19529e+00 -3.11492e+00
6
# CELL(abcABC):  459.05226   459.05226   459.05226    90.00000    90.00000    90.00000  Step:          23  Bead:       0 x_centroid{angstrom}  cell{atomic_unit}
       C -2.71471e-01 -1.10811e-01  6.87446e-02
       O  8.50195e-01  2.73425e-01 -1.80333e-01
       H -9.63436e-01  6.98571e-01 -4.19073e-01
       H -4.56659e-01 -1.04780e+00  6.43625e-01
       L -7.47534e+00 -1.35700e+00  2.45415e+00
       L -2.22621e+00 -2.30839e+00 -3.13427e+00
6
# CELL(abcABC):  459.05226   459.05226   459.05226    90.00000    90.00000    90.00000  Step:          24  Bead:       0 x_centroid{angstrom}  cell{atomic_unit}
       C -2.62485e-01 -1.04262e-01  6.34198e-02
       O  8.51840e-01  2.70668e-01 -1.78204e-01
       H -1.07678e+00  6.55070e-01 -3.79986e-01
       H -4.77120e-01 -1.03861e+00  6.34357e-01
       L -6.80397e+00 -1.23158e+00  2.16017e+00
       L -1.80086e+00 -2.35886e+00 -3.15727e+00
6
# CELL(abcABC):  459.05226   459.05226   459.05226    90.00000    90.00000    90.00000  Step:          25  Bead:       0 x_centroid{angstrom}  cell{atomic_unit}
       C -2.53414e-01 -9.67478e-02  5.76526e-02
       O  8.53384e-01  2.67519e-01 -1.75913e-01
       H -1.18827e+00  6.05621e-01 -3.36773e-01
       H -4.98888e-01 -1.02874e+00  6.23691e-01
       L -6.05436e+00 -1.13082e+00  1.84671e+00
       L -1.32745e+00 -2.41044e+00 -3.18498e+00
6
# CELL(abcABC):  459.05226   459.05226   459.05226    90.00000    90.00000    90.00000  Step:          26  Bead:       0 x_centroid{angstrom}  cell{atomic_unit}
       C -2.44694e-01 -8.87979e-02  5.17248e-02
       O  8.54869e-01  2.64218e-01 -1.73631e-01
       H -1.29539e+00  5.51312e-01 -2.90843e-01
       H -5.20008e-01 -1.01684e+00  6.12370e-01
       L -5.19591e+00 -9.99076e-01  1.51913e+00
       L -8.00662e-01 -2.39832e+00 -3.20314e+00
6
# CELL(abcABC):  459.05226   459.05226   459.05226    90.00000    90.00000    90.00000  Step:          27  Bead:       0 x_centroid{angstrom}  cell{atomic_unit}
       C -2.36517e-01 -8.04612e-02  4.56569e-02
       O  8.56289e-01  2.60789e-01 -1.71216e-01
       H -1.39508e+00  4.92889e-01 -2.42668e-01
       H -5.41065e-01 -1.00344e+00  5.98318e-01
       L -4.27333e+00 -8.92279e-01  1.13912e+00
       L -2.92242e-01 -2.31454e+00 -3.09702e+00
6
# CELL(abcABC):  459.05226   459.05226   459.05226    90.00000    90.00000    90.00000  Step:          28  Bead:       0 x_centroid{angstrom}  cell{atomic_unit}
       C -2.29511e-01 -7.20107e-02  3.92402e-02
       O  8.57726e-01  2.57367e-01 -1.68567e-01
       H -1.48387e+00  4.32351e-01 -1.93659e-01
       H -5.59388e-01 -9.89405e-01  5.83900e-01
       L -3.27106e+00 -7.81857e-01  7.27316e-01
       L  1.98574e-01 -2.20398e+00 -3.02558e+00
6
# CELL(abcABC):  459.05226   459.05226   459.05226    90.00000    90.00000    90.00000  Step:          29  Bead:       0 x_centroid{angstrom}  cell{atomic_unit}
       C -2.23645e-01 -6.36893e-02  3.29748e-02
       O  8.59128e-01  2.53956e-01 -1.65965e-01
       H -1.56122e+00  3.71302e-01 -1.44369e-01
       H -5.75008e-01 -9.73520e-01  5.68108e-01
       L -2.26245e+00 -6.66392e-01  3.13250e-01
       L  6.95657e-01 -2.04489e+00 -2.88131e+00
6
# CELL(abcABC):  459.05226   459.05226   459.05226    90.00000    90.00000    90.00000  Step:          30  Bead:       0 x_centroid{angstrom}  cell{atomic_unit}
       C -2.19032e-01 -5.57636e-02  2.67586e-02
       O  8.60603e-01  2.50910e-01 -1.63359e-01
       H -1.62749e+00  3.10410e-01 -9.62866e-02
       H -5.87950e-01 -9.58880e-01  5.52832e-01
       L -1.24109e+00 -5.57411e-01 -7.35733e-02
       L  1.19509e+00 -1.84259e+00 -2.67677e+00
6
# CELL(abcABC):  459.05226   459.05226   459.05226    90.00000    90.00000    90.00000  Step:          31  Bead:       0 x_centroid{angstrom}  cell{atomic_unit}
       C -2.16307e-01 -4.85050e-02  2.10593e-02
       O  8.62492e-01  2.48288e-01 -1.60963e-01
       H -1.68193e+00  2.51929e-01 -5.06217e-02
       H -5.96812e-01 -9.45466e-01  5.37161e-01
       L -1.81611e-01 -4.64001e-01 -4.62327e-01
       L  1.69665e+00 -1.60511e+00 -2.49294e+00
6
# CELL(abcABC):  459.05226   459.05226   459.05226    90.00000    90.00000    90.00000  Step:          32  Bead:       0 x_centroid{angstrom}  cell{atomic_unit}
       C -2.15531e-01 -4.18755e-02  1.59145e-02
       O  8.64787e-01  2.46074e-01 -1.58801e-01
       H -1.72540e+00  1.96965e-01 -8.82987e-03
       H -5.99909e-01 -9.34554e-01  5.22441e-01
       L  9.39366e-01 -3.86737e-01 -8.08237e-01
       L  2.19104e+00 -1.30165e+00 -2.30067e+00
6
# CELL(abcABC):  459.05226   459.05226   459.05226    90.00000    90.00000    90.00000  Step:          33  Bead:       0 x_centroid{angstrom}  cell{atomic_unit}
       C -2.16574e-01 -3.59845e-02  1.14118e-02
       O  8.67509e-01  2.44150e-01 -1.56916e-01
       H -1.75907e+00  1.47367e-01  2.90776e-02
       H -5.97838e-01 -9.24841e-01  5.08346e-01
       L  2.02638e+00 -3.17945e-01 -1.14673e+00
       L  2.63897e+00 -9.64216e-01 -2.10342e+00
6
# CELL(abcABC):  459.05226   459.05226   459.05226    90.00000    90.00000    90.00000  Step:          34  Bead:       0 x_centroid{angstrom}  cell{atomic_unit}
       C -2.19576e-01 -3.11556e-02  7.63253e-03
       O  8.70733e-01  2.42877e-01 -1.55328e-01
       H -1.78284e+00  1.03224e-01  6.23817e-02
       H -5.90247e-01 -9.18281e-01  4.94896e-01
       L  3.06211e+00 -2.00897e-01 -1.42946e+00
       L  3.02521e+00 -6.09772e-01 -1.86325e+00
6
# CELL(abcABC):  459.05226   459.05226   459.05226    90.00000    90.00000    90.00000  Step:          35  Bead:       0 x_centroid{angstrom}  cell{atomic_unit}
       C -2.23863e-01 -2.73995e-02  4.34314e-03
       O  8.74136e-01  2.42110e-01 -1.53879e-01
       H -1.79801e+00  6.61798e-02  9.24823e-02
       H -5.78750e-01 -9.14119e-01  4.80942e-01
       L  4.04362e+00 -5.58057e-02 -1.65822e+00
       L  3.39124e+00 -2.08372e-01 -1.53618e+00
6
# CELL(abcABC):  459.05226   459.05226   459.05226    90.00000    90.00000    90.00000  Step:          36  Bead:       0 x_centroid{angstrom}  cell{atomic_unit}
       C -2.29551e-01 -2.46808e-02  1.95467e-03
       O  8.77903e-01  2.41776e-01 -1.52940e-01
       H -1.80690e+00  3.68101e-02  1.18710e-01
       H -5.62559e-01 -9.12140e-01  4.68163e-01
       L  4.98280e+00  7.71106e-02 -1.84177e+00
       L  3.71121e+00  2.13630e-01 -1.16349e+00
6
# CELL(abcABC):  459.05226   459.05226   459.05226    90.00000    90.00000    90.00000  Step:          37  Bead:       0 x_centroid{angstrom}  cell{atomic_unit}
       C -2.36539e-01 -2.29523e-02  1.12540e-04
       O  8.81905e-01  2.41991e-01 -1.52178e-01
       H -1.80848e+00  1.55561e-02  1.39684e-01
       H -5.41838e-01 -9.15206e-01  4.56914e-01
       L  5.83230e+00  2.28846e-01 -2.07100e+00
       L  3.95871e+00  6.05230e-01 -6.96242e-01
6
# CELL(abcABC):  459.05226   459.05226   459.05226    90.00000    90.00000    90.00000  Step:          38  Bead:       0 x_centroid{angstrom}  cell{atomic_unit}
       C -2.44272e-01 -2.17523e-02 -9.40093e-04
       O  8.85815e-01  2.42601e-01 -1.51847e-01
       H -1.80299e+00  6.60327e-04  1.55591e-01
       H -5.17807e-01 -9.24593e-01  4.48182e-01
       L  6.66125e+00  3.86967e-01 -2.33627e+00
       L  4.19329e+00  1.01507e+00 -2.22935e-01
6
# CELL(abcABC):  459.05226   459.05226   459.05226    90.00000    90.00000    90.00000  Step:          39  Bead:       0 x_centroid{angstrom}  cell{atomic_unit}
       C -2.52715e-01 -2.09242e-02 -1.53025e-03
       O  8.89585e-01  2.43347e-01 -1.51633e-01
       H -1.78922e+00 -6.43276e-03  1.66723e-01
       H -4.91292e-01 -9.39518e-01  4.40542e-01
       L  7.37952e+00  4.85581e-01 -2.54848e+00
       L  4.33627e+00  1.47638e+00  2.42999e-01
6
# CELL(abcABC):  459.05226   459.05226   459.05226    90.00000    90.00000    90.00000  Step:          40  Bead:       0 x_centroid{angstrom}  cell{atomic_unit}
       C -2.61356e-01 -2.06261e-02 -1.38865e-03
       O  8.92850e-01  2.44306e-01 -1.51852e-01
       H -1.76827e+00 -5.43521e-03  1.74013e-01
       H -4.61509e-01 -9.59528e-01  4.34914e-01
       L  8.04940e+00  5.00493e-01 -2.72002e+00
       L  4.41627e+00  1.90244e+00  6.57034e-01
6
# CELL(abcABC):  459.05226   459.05226   459.05226    90.00000    90.00000    90.00000  Step:          41  Bead:       0 x_centroid{angstrom}  cell{atomic_unit}
       C -2.70739e-01 -2.10018e-02 -8.37160e-04
       O  8.96031e-01  2.45548e-01 -1.52103e-01
       H -1.73934e+00  2.96916e-03  1.77613e-01
       H -4.29456e-01 -9.83382e-01  4.28582e-01
       L  8.61903e+00  5.21040e-01 -2.88277e+00
       L  4.47210e+00  2.28166e+00  1.07740e+00
6
# CELL(abcABC):  459.05226   459.05226   459.05226    90.00000    90.00000    90.00000  Step:          42  Bead:       0 x_centroid{angstrom}  cell{atomic_unit}
       C -2.80280e-01 -2.22792e-02  4.08387e-04
       O  8.98679e-01  2.47123e-01 -1.52577e-01
       H -1.70191e+00  1.96205e-02  1.76046e-01
       H -3.95435e-01 -1.00997e+00  4.22680e-01
       L  9.03544e+00  4.92576e-01 -3.04549e+00
       L  4.41392e+00  2.59507e+00  1.51945e+00
6
# CELL(abcABC):  459.05226   459.05226   459.05226    90.00000    90.00000    90.00000  Step:          43  Bead:       0 x_centroid{angstrom}  cell{atomic_unit}
       C -2.89822e-01 -2.43484e-02  2.44607e-03
       O  9.00599e-01  2.48999e-01 -1.53364e-01
       H -1.65414e+00  4.24724e-02  1.69684e-01
       H -3.60073e-01 -1.03808e+00  4.17114e-01
       L  9.36387e+00  4.52584e-01 -3.22307e+00
       L  4.26376e+00  2.86131e+00  1.95566e+00
6
# CELL(abcABC):  459.05226   459.05226   459.05226    90.00000    90.00000    90.00000  Step:          44  Bead:       0 x_centroid{angstrom}  cell{atomic_unit}
       C -2.99303e-01 -2.73412e-02  4.98665e-03
       O  9.01870e-01  2.51234e-01 -1.54190e-01
       H -1.59638e+00  7.23792e-02  1.58049e-01
       H -3.25082e-01 -1.06795e+00  4.11414e-01
       L  9.61740e+00  4.52813e-01 -3.32003e+00
       L  4.09172e+00  3.16135e+00  2.38489e+00
6
# CELL(abcABC):  459.05226   459.05226   459.05226    90.00000    90.00000    90.00000  Step:          45  Bead:       0 x_centroid{angstrom}  cell{atomic_unit}
       C -3.08599e-01 -3.14091e-02  8.00233e-03
       O  9.02446e-01  2.53865e-01 -1.55157e-01
       H -1.53038e+00  1.07542e-01  1.44160e-01
       H -2.89465e-01 -1.09656e+00  4.04506e-01
       L  9.83757e+00  4.46629e-01 -3.34865e+00
       L  3.90386e+00  3.45452e+00  2.79081e+00
6
# CELL(abcABC):  459.05226   459.05226   459.05226    90.00000    90.00000    90.00000  Step:          46  Bead:       0 x_centroid{angstrom}  cell{atomic_unit}
       C -3.17192e-01 -3.62098e-02  1.17134e-02
       O  9.02101e-01  2.56541e-01 -1.56127e-01
       H -1.45720e+00  1.48948e-01  1.25003e-01
       H -2.54700e-01 -1.12338e+00  3.94567e-01
       L  9.93730e+00  4.58581e-01 -3.26807e+00
       L  3.69777e+00  3.69801e+00  3.19959e+00
6
# CELL(abcABC):  459.05226   459.05226   459.05226    90.00000    90.00000    90.00000  Step:          47  Bead:       0 x_centroid{angstrom}  cell{atomic_unit}
       C -3.24715e-01 -4.21604e-02  1.62567e-02
       O  9.00759e-01  2.59468e-01 -1.57327e-01
       H -1.37875e+00  1.95572e-01  1.01816e-01
       H -2.22130e-01 -1.14563e+00  3.82353e-01
       L  1.00130e+01  4.09458e-01 -3.11698e+00
       L  3.45802e+00  3.89490e+00  3.63490e+00
6
# CELL(abcABC):  459.05226   459.05226   459.05226    90.00000    90.00000    90.00000  Step:          48  Bead:       0 x_centroid{angstrom}  cell{atomic_unit}
       C -3.30487e-01 -4.94149e-02  2.10322e-02
       O  8.98351e-01  2.62723e-01 -1.58339e-01
       H -1.29972e+00  2.48469e-01  7.52000e-02
       H -1.94035e-01 -1.16381e+00  3.67798e-01
       L  1.00378e+01  3.59396e-01 -2.91981e+00
       L  3.21565e+00  4.04573e+00  4.04955e+00
6
# CELL(abcABC):  459.05226   459.05226   459.05226    90.00000    90.00000    90.00000  Step:          49  Bead:       0 x_centroid{angstrom}  cell{atomic_unit}
       C -3.33892e-01 -5.79205e-02  2.61560e-02
       O  8.94829e-01  2.66137e-01 -1.59424e-01
       H -1.22662e+00  3.09283e-01  4.71883e-02
       H -1.70450e-01 -1.17750e+00  3.51631e-01
       L  9.95139e+00  3.00547e-01 -2.67337e+00
       L  2.94551e+00  4.18258e+00  4.43901e+00
6
# CELL(abcABC):  459.05226   459.05226   459.05226    90.00000    90.00000    90.00000  Step:          50  Bead:       0 x_centroid{angstrom}  cell{atomic_unit}
       C -3.34466e-01 -6.77829e-02  3.17923e-02
       O  8.90303e-01  2.69710e-01 -1.60686e-01
       H -1.16544e+00  3.79796e-01  1.71353e-02
       H -1.52708e-01 -1.18725e+00  3.34202e-01
       L  9.80646e+00  2.65576e-01 -2.38598e+00
       L  2.64475e+00  4.26941e+00  4.79030e+00
6
# CELL(abcABC):  459.05226   459.05226   459.05226    90.00000    90.00000    90.00000  Step:          51  Bead:       0 x_centroid{angstrom}  cell{atomic_unit}
       C -3.31925e-01 -7.94516e-02  3.74658e-02
       O  8.84850e-01  2.73709e-01 -1.61864e-01
       H -1.11975e+00  4.61013e-01 -1.35047e-02
       H -1.41842e-01 -1.19286e+00  3.15574e-01
       L  9.55537e+00  2.07924e-01 -1.99244e+00
       L  2.36142e+00  4.27119e+00  5.06252e+00
6
# CELL(abcABC):  459.05226   459.05226   459.05226    90.00000    90.00000    90.00000  Step:          52  Bead:       0 x_centroid{angstrom}  cell{atomic_unit}
       C -3.26741e-01 -9.23431e-02  4.34503e-02
       O  8.78674e-01  2.77689e-01 -1.63077e-01
       H -1.08692e+00  5.50948e-01 -4.53637e-02
       H -1.38106e-01 -1.19227e+00  2.95052e-01
       L  9.23747e+00  1.12912e-01 -1.61911e+00
       L  2.10948e+00  4.22568e+00  5.28527e+00
6
# CELL(abcABC):  459.05226   459.05226   459.05226    90.00000    90.00000    90.00000  Step:          53  Bead:       0 x_centroid{angstrom}  cell{atomic_unit}
       C -3.19133e-01 -1.06049e-01  4.95081e-02
       O  8.71661e-01  2.81943e-01 -1.64373e-01
       H -1.06226e+00  6.43667e-01 -7.70451e-02
       H -1.41736e-01 -1.18910e+00  2.74831e-01
       L  8.84956e+00  2.19223e-02 -1.26019e+00
       L  1.84187e+00  4.12593e+00  5.46001e+00
6
# CELL(abcABC):  459.05226   459.05226   459.05226    90.00000    90.00000    90.00000  Step:          54  Bead:       0 x_centroid{angstrom}  cell{atomic_unit}
       C -3.09539e-01 -1.19655e-01  5.47873e-02
       O  8.63949e-01  2.86023e-01 -1.65121e-01
       H -1.04199e+00  7.36374e-01 -1.08390e-01
       H -1.53484e-01 -1.18435e+00  2.54859e-01
       L  8.38810e+00 -5.16930e-02 -8.57385e-01
       L  1.52675e+00  4.01917e+00  5.56014e+00
6
# CELL(abcABC):  459.05226   459.05226   459.05226    90.00000    90.00000    90.00000  Step:          55  Bead:       0 x_centroid{angstrom}  cell{atomic_unit}
       C -2.98827e-01 -1.32776e-01  5.97538e-02
       O  8.55750e-01  2.90020e-01 -1.65873e-01
       H -1.02153e+00  8.22967e-01 -1.37251e-01
       H -1.70924e-01 -1.17796e+00  2.36254e-01
       L  7.79353e+00 -1.07017e-01 -4.91683e-01
       L  1.14576e+00  3.94370e+00  5.60941e+00
6
# CELL(abcABC):  459.05226   459.05226   459.05226    90.00000    90.00000    90.00000  Step:          56  Bead:       0 x_centroid{angstrom}  cell{atomic_unit}
       C -2.87087e-01 -1.44792e-01  6.39164e-02
       O  8.47136e-01  2.93970e-01 -1.66313e-01
       H -1.00044e+00  8.99166e-01 -1.62757e-01
       H -1.94593e-01 -1.17356e+00  2.18948e-01
       L  7.13732e+00 -1.77475e-01 -1.52177e-01
       L  7.48423e-01  3.80031e+00  5.62127e+00
6
# CELL(abcABC):  459.05226   459.05226   459.05226    90.00000    90.00000    90.00000  Step:          57  Bead:       0 x_centroid{angstrom}  cell{atomic_unit}
       C -2.74633e-01 -1.54570e-01  6.75985e-02
       O  8.38260e-01  2.97261e-01 -1.66636e-01
       H -9.78474e-01  9.63188e-01 -1.84684e-01
       H -2.23460e-01 -1.17317e+00  2.02006e-01
       L  6.43090e+00 -2.37298e-01  1.32414e-01
       L  3.25537e-01  3.61616e+00  5.57131e+00
6
# CELL(abcABC):  459.05226   459.05226   459.05226    90.00000    90.00000    90.00000  Step:          58  Bead:       0 x_centroid{angstrom}  cell{atomic_unit}
       C -2.61708e-01 -1.62480e-01  7.05291e-02
       O  8.29326e-01  3.00295e-01 -1.66725e-01
       H -9.56876e-01  1.01383e+00 -2.02694e-01
       H -2.56602e-01 -1.17750e+00  1.86411e-01
       L  5.67342e+00 -3.37449e-01  4.04066e-01
       L -1.21765e-01  3.34971e+00  5.46959e+00
6
# CELL(abcABC):  459.05226   459.05226   459.05226    90.00000    90.00000    90.00000  Step:          59  Bead:       0 x_centroid{angstrom}  cell{atomic_unit}
       C -2.48406e-01 -1.68403e-01  7.25444e-02
       O  8.20522e-01  3.03000e-01 -1.66514e-01
       H -9.36597e-01  1.05344e+00 -2.17304e-01
       H -2.94966e-01 -1.18931e+00  1.73601e-01
       L  4.87299e+00 -4.36765e-01  6.63819e-01
       L -5.78793e-01  3.10764e+00  5.29626e+00
6
# CELL(abcABC):  459.05226   459.05226   459.05226    90.00000    90.00000    90.00000  Step:          60  Bead:       0 x_centroid{angstrom}  cell{atomic_unit}
       C -2.35049e-01 -1.72362e-01  7.37303e-02
       O  8.12092e-01  3.05441e-01 -1.66203e-01
       H -9.18219e-01  1.07969e+00 -2.27538e-01
       H -3.37961e-01 -1.20695e+00  1.64783e-01
       L  3.99223e+00 -4.99285e-01  8.75467e-01
       L -1.03710e+00  2.85974e+00  5.07343e+00
6
# CELL(abcABC):  459.05226   459.05226   459.05226    90.00000    90.00000    90.00000  Step:          61  Bead:       0 x_centroid{angstrom}  cell{atomic_unit}
       C -2.21960e-01 -1.74714e-01  7.38310e-02
       O  8.04105e-01  3.07658e-01 -1.65524e-01
       H -9.01365e-01  1.09392e+00 -2.34269e-01
       H -3.83337e-01 -1.22818e+00  1.59558e-01
       L  3.15978e+00 -5.22211e-01  1.02073e+00
       L -1.43746e+00  2.59422e+00  4.86973e+00
6
# CELL(abcABC):  459.05226   459.05226   459.05226    90.00000    90.00000    90.00000  Step:          62  Bead:       0 x_centroid{angstrom}  cell{atomic_unit}
       C -2.09543e-01 -1.75655e-01  7.32852e-02
       O  7.96895e-01  3.09676e-01 -1.64705e-01
       H -8.87405e-01  1.09520e+00 -2.37589e-01
       H -4.30113e-01 -1.25015e+00  1.56464e-01
       L  2.24412e+00 -5.21490e-01  1.12091e+00
       L -1.81044e+00  2.32630e+00  4.62635e+00
6
# CELL(abcABC):  459.05226   459.05226   459.05226    90.00000    90.00000    90.00000  Step:          63  Bead:       0 x_centroid{angstrom}  cell{atomic_unit}
       C -1.97894e-01 -1.75403e-01  7.25462e-02
       O  7.90548e-01  3.11431e-01 -1.63994e-01
       H -8.76664e-01  1.08560e+00 -2.37772e-01
       H -4.78242e-01 -1.27128e+00  1.54283e-01
       L  1.37175e+00 -5.01972e-01  1.19629e+00
       L -2.15683e+00  2.09518e+00  4.32906e+00
6
# CELL(abcABC):  459.05226   459.05226   459.05226    90.00000    90.00000    90.00000  Step:          64  Bead:       0 x_centroid{angstrom}  cell{atomic_unit}
       C -1.88010e-01 -1.74330e-01  7.14001e-02
       O  7.85794e-01  3.13087e-01 -1.63289e-01
       H -8.68647e-01  1.06407e+00 -2.33763e-01
       H -5.27907e-01 -1.28874e+00  1.52902e-01
       L  4.79970e-01 -4.53981e-01  1.24373e+00
       L -2.48428e+00  1.91496e+00  3.99736e+00
6
# CELL(abcABC):  459.05226   459.05226   459.05226    90.00000    90.00000    90.00000  Step:          65  Bead:       0 x_centroid{angstrom}  cell{atomic_unit}
       C -1.80262e-01 -1.72682e-01  6.98984e-02
       O  7.82804e-01  3.14750e-01 -1.62632e-01
       H -8.64659e-01  1.03119e+00 -2.25558e-01
       H -5.76106e-01 -1.30183e+00  1.52342e-01
       L -4.43515e-01 -3.77978e-01  1.31546e+00
       L -2.79470e+00  1.70366e+00  3.59037e+00
6
# CELL(abcABC):  459.05226   459.05226   459.05226    90.00000    90.00000    90.00000  Step:          66  Bead:       0 x_centroid{angstrom}  cell{atomic_unit}
       C -1.74668e-01 -1.70700e-01  6.82084e-02