6
# CELL(abcABC):  459.05226   459.05226   459.05226    90.00000    90.00000    90.00000  Step:           0  Bead:       0 x_centroid{angstrom}  cell{atomic_unit}
       C -3.39887e-01 -1.13437e-01  8.06659e-02
       O  8.43483e-01  2.62672e-01 -1.81512e-01
       H -7.35799e-02  8.16467e-01 -6.61432e-01
       H -4.30016e-01 -9.65701e-01  7.62278e-01
       L  0.00000e+00  0.00000e+00  0.00000e+00
       L  0.00000e+00  0.00000e+00  0.00000e+00
6
# CELL(abcABC):  459.05226   459.05226   459.05226    90.00000    90.00000    90.00000  Step:           1  Bead:       0 x_centroid{angstrom}  cell{atomic_unit}
       C -3.33082e-01 -1.11202e-01  8.03856e-02
       O  8.38786e-01  2.60900e-01 -1.81072e-01
       H -7.53925e-02  8.26355e-01 -6.66926e-01
       H -4.34388e-01 -9.74299e-01  7.63880e-01
       L -6.72742e-01  8.18233e-03  4.68804e-01
       L  4.32007e-02  3.55994e-01 -1.37794e-02
6
# CELL(abcABC):  459.05226   459.05226   459.05226    90.00000    90.00000    90.00000  Step:           2  Bead:       0 x_centroid{angstrom}  cell{atomic_unit}
       C -3.26490e-01 -1.09069e-01  7.99288e-02
       O  8.34260e-01  2.59158e-01 -1.80582e-01
       H -7.76200e-02  8.35234e-01 -6.71440e-01
       H -4.38549e-01 -9.81161e-01  7.65813e-01
       L -1.28390e+00  2.64529e-02  9.35698e-01
       L  5.45697e-02  7.52213e-01 -4.46593e-02
6
# CELL(abcABC):  459.05226   459.05226   459.05226    90.00000    90.00000    90.00000  Step:           3  Bead:       0 x_centroid{angstrom}  cell{atomic_unit}
       C -3.20165e-01 -1.06936e-01  7.95562e-02
       O  8.30054e-01  2.57422e-01 -1.80098e-01
       H -8.17949e-02  8.42369e-01 -6.76066e-01
       H -4.42655e-01 -9.86391e-01  7.66994e-01
       L -1.88247e+00  3.39396e-02  1.38063e+00
       L  7.33739e-02  1.16208e+00 -1.00062e-01
6
# CELL(abcABC):  459.05226   459.05226   459.05226    90.00000    90.00000    90.00000  Step:           4  Bead:       0 x_centroid{angstrom}  cell{atomic_unit}
       C -3.14147e-01 -1.04777e-01  7.94184e-02
       O  8.26175e-01  2.55634e-01 -1.79745e-01
       H -8.79696e-02  8.48326e-01 -6.79446e-01
       H -4.46287e-01 -9.89929e-01  7.66204e-01
       L -2.50441e+00  2.85288e-02  1.76884e+00
       L  6.52108e-02  1.58139e+00 -1.14237e-01
6
# CELL(abcABC):  459.05226   459.05226   459.05226    90.00000    90.00000    90.00000  Step:           5  Bead:       0 x_centroid{angstrom}  cell{atomic_unit}
       C -3.08927e-01 -1.02803e-01  7.93977e-02
       O  8.22945e-01  2.53975e-01 -1.79494e-01
       H -9.59380e-02  8.53655e-01 -6.81147e-01
       H -4.48932e-01 -9.92667e-01  7.63964e-01
       L -3.08656e+00  3.85616e-02  2.12335e+00
       L  6.70812e-02  1.98838e+00 -1.06370e-01
6
# CELL(abcABC):  459.05226   459.05226   459.05226    90.00000    90.00000    90.00000  Step:           6  Bead:       0 x_centroid{angstrom}  cell{atomic_unit}
       C -3.04285e-01 -1.00929e-01  7.94316e-02
       O  8.20335e-01  2.52371e-01 -1.79326e-01
       H -1.06787e-01  8.56896e-01 -6.81548e-01
       H -4.51601e-01 -9.92983e-01  7.61141e-01
       L -3.75424e+00  3.49381e-02  2.47244e+00
       L  7.10404e-02  2.35748e+00 -1.61756e-01
6
# CELL(abcABC):  459.05226   459.05226   459.05226    90.00000    90.00000    90.00000  Step:           7  Bead:       0 x_centroid{angstrom}  cell{atomic_unit}
       C -3.00544e-01 -9.91147e-02  7.94273e-02
       O  8.18514e-01  2.50788e-01 -1.79167e-01
       H -1.20504e-01  8.59067e-01 -6.79857e-01
       H -4.53216e-01 -9.91849e-01  7.56839e-01
       L -4.38791e+00  1.00277e-01  2.78894e+00
       L  9.81341e-02  2.69174e+00 -2.27713e-01
6
# CELL(abcABC):  459.05226   459.05226   459.05226    90.00000    90.00000    90.00000  Step:           8  Bead:       0 x_centroid{angstrom}  cell{atomic_unit}
       C -2.97684e-01 -9.70074e-02  7.93744e-02
       O  8.17677e-01  2.49061e-01 -1.78928e-01
       H -1.38862e-01  8.59141e-01 -6.76914e-01
       H -4.55331e-01 -9.89829e-01  7.50570e-01
       L -5.02674e+00  1.86179e-01  3.16167e+00
       L  1.12344e-01  2.97822e+00 -2.90860e-01
6
# CELL(abcABC):  459.05226   459.05226   459.05226    90.00000    90.00000    90.00000  Step:           9  Bead:       0 x_centroid{angstrom}  cell{atomic_unit}
       C -2.95534e-01 -9.50747e-02  7.91798e-02
       O  8.17761e-01  2.47504e-01 -1.78607e-01
       H -1.63111e-01  8.56619e-01 -6.71892e-01
       H -4.57681e-01 -9.85829e-01  7.42639e-01
       L -5.64379e+00  2.92342e-01  3.43376e+00
       L  1.04858e-01  3.25132e+00 -3.36367e-01
6
# CELL(abcABC):  459.05226   459.05226   459.05226    90.00000    90.00000    90.00000  Step:          10  Bead:       0 x_centroid{angstrom}  cell{atomic_unit}
       C -2.94272e-01 -9.31454e-02  7.92359e-02
       O  8.19054e-01  2.46071e-01 -1.78439e-01
       H -1.95072e-01  8.50701e-01 -6.66024e-01
       H -4.60937e-01 -9.80331e-01  7.33300e-01
       L -6.25029e+00  3.83531e-01  3.70550e+00
       L  7.45181e-02  3.48447e+00 -3.61618e-01
6
# CELL(abcABC):  459.05226   459.05226   459.05226    90.00000    90.00000    90.00000  Step:          11  Bead:       0 x_centroid{angstrom}  cell{atomic_unit}
       C -2.93633e-01 -9.07255e-02  7.92203e-02
       O  8.21470e-01  2.44307e-01 -1.78232e-01
       H -2.36317e-01  8.42514e-01 -6.58807e-01
       H -4.65323e-01 -9.73132e-01  7.22844e-01
       L -6.83242e+00  4.99569e-01  3.98663e+00
       L  4.63165e-02  3.65110e+00 -3.73450e-01
6
# CELL(abcABC):  459.05226   459.05226   459.05226    90.00000    90.00000    90.00000  Step:          12  Bead:       0 x_centroid{angstrom}  cell{atomic_unit}
       C -2.93430e-01 -8.80036e-02  7.87296e-02
       O  8.24949e-01  2.42440e-01 -1.77902e-01
       H -2.87551e-01  8.32314e-01 -6.48784e-01
       H -4.71447e-01 -9.65901e-01  7.13296e-01
       L -7.37261e+00  6.26638e-01  4.23480e+00
       L  7.00305e-02  3.82379e+00 -3.81574e-01
6
# CELL(abcABC):  459.05226   459.05226   459.05226    90.00000    90.00000    90.00000  Step:          13  Bead:       0 x_centroid{angstrom}  cell{atomic_unit}
       C -2.93599e-01 -8.46888e-02  7.75657e-02
       O  8.29551e-01  2.40224e-01 -1.77191e-01
       H -3.51664e-01  8.20490e-01 -6.36491e-01
       H -4.78135e-01 -9.58577e-01  7.03490e-01
       L -7.84932e+00  8.06503e-01  4.42129e+00
       L  8.99942e-02  3.98865e+00 -4.02848e-01
6
# CELL(abcABC):  459.05226   459.05226   459.05226    90.00000    90.00000    90.00000  Step:          14  Bead:       0 x_centroid{angstrom}  cell{atomic_unit}
       C -2.93718e-01 -8.03617e-02  7.57467e-02
       O  8.35007e-01  2.37388e-01 -1.76161e-01
       H -4.28543e-01  8.05091e-01 -6.21600e-01
       H -4.86206e-01 -9.49910e-01  6.93896e-01
       L -8.24200e+00  9.78106e-01  4.55658e+00
       L  6.20886e-02  4.14357e+00 -4.60461e-01
6
# CELL(abcABC):  459.05226   459.05226   459.05226    90.00000    90.00000    90.00000  Step:          15  Bead:       0 x_centroid{angstrom}  cell{atomic_unit}
       C -2.93365e-01 -7.51408e-02  7.31815e-02
       O  8.41137e-01  2.34035e-01 -1.74725e-01
       H -5.17803e-01  7.86531e-01 -6.04486e-01
       H -4.98249e-01 -9.40491e-01  6.84510e-01
       L -8.58371e+00  1.15356e+00  4.66983e+00
       L  2.50597e-02  4.26367e+00 -5.11807e-01
6
# CELL(abcABC):  459.05226   459.05226   459.05226    90.00000    90.00000    90.00000  Step:          16  Bead:       0 x_centroid{angstrom}  cell{atomic_unit}
       C -2.92736e-01 -6.91344e-02  6.98650e-02
       O  8.47955e-01  2.30141e-01 -1.72945e-01
       H -6.18996e-01  7.66341e-01 -5.85205e-01
       H -5.12621e-01 -9.30221e-01  6.76476e-01
       L -8.82468e+00  1.37230e+00  4.76305e+00
       L -2.44959e-02  4.32784e+00 -5.74488e-01
6
# CELL(abcABC):  459.05226   459.05226   459.05226    90.00000    90.00000    90.00000  Step:          17  Bead:       0 x_centroid{angstrom}  cell{atomic_unit}
       C -2.91614e-01 -6.20999e-02  6.59550e-02
       O  8.55264e-01  2.25637e-01 -1.70925e-01
       H -7.31010e-01  7.43039e-01 -5.63663e-01
       H -5.29873e-01 -9.19372e-01  6.69499e-01
       L -8.93522e+00  1.57210e+00  4.77908e+00
       L -1.35074e-01  4.36257e+00 -6.47365e-01
6
# CELL(abcABC):  459.05226   459.05226   459.05226    90.00000    90.00000    90.00000  Step:          18  Bead:       0 x_centroid{angstrom}  cell{atomic_unit}
       C -2.89834e-01 -5.46875e-02  6.15661e-02
       O  8.62853e-01  2.21148e-01 -1.68826e-01
       H -8.52401e-01  7.15178e-01 -5.37975e-01
       H -5.50081e-01 -9.08675e-01  6.62825e-01
       L -8.95798e+00  1.72454e+00  4.79923e+00
       L -2.68963e-01  4.35664e+00 -7.22304e-01
6
# CELL(abcABC):  459.05226   459.05226   459.05226    90.00000    90.00000    90.00000  Step:          19  Bead:       0 x_centroid{angstrom}  cell{atomic_unit}
       C -2.87550e-01 -4.69278e-02  5.69527e-02
       O  8.70475e-01  2.16635e-01 -1.66672e-01
       H -9.78639e-01  6.83660e-01 -5.10628e-01
       H -5.72015e-01 -8.98061e-01  6.56302e-01
       L -8.84911e+00  1.86095e+00  4.78681e+00
       L -4.11702e-01  4.36668e+00 -7.88845e-01
6
# CELL(abcABC):  459.05226   459.05226   459.05226    90.00000    90.00000    90.00000  Step:          20  Bead:       0 x_centroid{angstrom}  cell{atomic_unit}
       C -2.85164e-01 -3.83279e-02  5.19023e-02
       O  8.78151e-01  2.11712e-01 -1.64436e-01
       H -1.10608e+00  6.48477e-01 -4.79228e-01
       H -5.94884e-01 -8.87198e-01  6.49623e-01
       L -8.69865e+00  1.93679e+00  4.74348e+00
       L -5.03108e-01  4.27454e+00 -8.26187e-01
6
# CELL(abcABC):  459.05226   459.05226   459.05226    90.00000    90.00000    90.00000  Step:          21  Bead:       0 x_centroid{angstrom}  cell{atomic_unit}
       C -2.82595e-01 -2.90029e-02  4.60933e-02
       O  8.85439e-01  2.06526e-01 -1.61916e-01
       H -1.22959e+00  6.07884e-01 -4.43206e-01
       H -6.17726e-01 -8.75356e-01  6.42837e-01
       L -8.45157e+00  2.00919e+00  4.74094e+00
       L -6.58893e-01  4.10451e+00 -8.32054e-01
6
# CELL(abcABC):  459.05226   459.05226   459.05226    90.00000    90.00000    90.00000  Step:          22  Bead:       0 x_centroid{angstrom}  cell{atomic_unit}
       C -2.79941e-01 -1.94050e-02  3.97299e-02
       O  8.92240e-01  2.01386e-01 -1.59281e-01
       H -1.34599e+00  5.63198e-01 -4.04261e-01
       H -6.41013e-01 -8.63354e-01  6.37915e-01
       L -8.08537e+00  2.07726e+00  4.67153e+00
       L -8.24289e-01  3.86014e+00 -8.22723e-01
6
# CELL(abcABC):  459.05226   459.05226   459.05226    90.00000    90.00000    90.00000  Step:          23  Bead:       0 x_centroid{angstrom}  cell{atomic_unit}
       C -2.77602e-01 -1.00993e-02  3.31494e-02
       O  8.98499e-01  1.96671e-01 -1.56534e-01
       H -1.45255e+00  5.14869e-01 -3.62874e-01
       H -6.61809e-01 -8.50939e-01  6.31358e-01
       L -7.69455e+00  2.12732e+00  4.58622e+00
       L -9.76015e-01  3.56143e+00 -7.49216e-01
6
# CELL(abcABC):  459.05226   459.05226   459.05226    90.00000    90.00000    90.00000  Step:          24  Bead:       0 x_centroid{angstrom}  cell{atomic_unit}
       C -2.75637e-01 -6.91289e-04  2.62530e-02
       O  9.04149e-01  1.92003e-01 -1.53628e-01
       H -1.54747e+00  4.65995e-01 -3.21101e-01
       H -6.80166e-01 -8.39923e-01  6.25598e-01
       L -7.25610e+00  2.16283e+00  4.47088e+00
       L -1.07923e+00  3.25531e+00 -5.83313e-01
6
# CELL(abcABC):  459.05226   459.05226   459.05226    90.00000    90.00000    90.00000  Step:          25  Bead:       0 x_centroid{angstrom}  cell{atomic_unit}
       C -2.73900e-01  8.73437e-03  1.94296e-02
       O  9.09056e-01  1.87203e-01 -1.50753e-01
       H -1.63011e+00  4.18441e-01 -2.79856e-01
       H -6.96385e-01 -8.28266e-01  6.20016e-01
       L -6.73229e+00  2.12550e+00  4.29307e+00
       L -1.13286e+00  2.88706e+00 -3.89832e-01
6
# CELL(abcABC):  459.05226   459.05226   459.05226    90.00000    90.00000    90.00000  Step:          26  Bead:       0 x_centroid{angstrom}  cell{atomic_unit}
       C -2.72729e-01  1.75757e-02  1.28900e-02
       O  9.13346e-01  1.82759e-01 -1.48166e-01
       H -1.70073e+00  3.72683e-01 -2.38015e-01
       H -7.08114e-01 -8.17128e-01  6.15038e-01
       L -6.14275e+00  2.09913e+00  4.05825e+00
       L -1.15604e+00  2.54907e+00 -1.66013e-01
6
# CELL(abcABC):  459.05226   459.05226   459.05226    90.00000    90.00000    90.00000  Step:          27  Bead:       0 x_centroid{angstrom}  cell{atomic_unit}
       C -2.71803e-01  2.56494e-02  6.46160e-03
       O  9.16723e-01  1.78737e-01 -1.45679e-01
       H -1.75925e+00  3.29820e-01 -1.97509e-01
       H -7.14578e-01 -8.06398e-01  6.11716e-01
       L -5.51455e+00  2.02965e+00  3.75667e+00
       L -1.14396e+00  2.19202e+00  3.83621e-02
6
# CELL(abcABC):  459.05226   459.05226   459.05226    90.00000    90.00000    90.00000  Step:          28  Bead:       0 x_centroid{angstrom}  cell{atomic_unit}
       C -2.71276e-01  3.31030e-02  4.84827e-04
       O  9.19335e-01  1.75002e-01 -1.43420e-01
       H -1.80606e+00  2.90236e-01 -1.59891e-01
       H -7.15856e-01 -7.96108e-01  6.09512e-01
       L -4.88341e+00  1.94710e+00  3.43099e+00
       L -1.16366e+00  1.84536e+00  2.72032e-01
6
# CELL(abcABC):  459.05226   459.05226   459.05226    90.00000    90.00000    90.00000  Step:          29  Bead:       0 x_centroid{angstrom}  cell{atomic_unit}
       C -2.71060e-01  3.98354e-02 -4.89431e-03
       O  9.21196e-01  1.71400e-01 -1.41449e-01
       H -1.84250e+00  2.55483e-01 -1.24322e-01
       H -7.11851e-01 -7.84164e-01  6.06828e-01
       L -4.21495e+00  1.84942e+00  3.05864e+00
       L -1.20557e+00  1.51005e+00  4.99234e-01
6
# CELL(abcABC):  459.05226   459.05226   459.05226    90.00000    90.00000    90.00000  Step:          30  Bead:       0 x_centroid{angstrom}  cell{atomic_unit}
       C -2.71146e-01  4.58883e-02 -9.37618e-03
       O  9.22291e-01  1.67947e-01 -1.39911e-01
       H -1.86846e+00  2.26533e-01 -9.36431e-02
       H -7.02643e-01 -7.72311e-01  6.05253e-01
       L -3.50968e+00  1.75685e+00  2.66364e+00
       L -1.17723e+00  1.18091e+00  6.89409e-01
6
# CELL(abcABC):  459.05226   459.05226   459.05226    90.00000    90.00000    90.00000  Step:          31  Bead:       0 x_centroid{angstrom}  cell{atomic_unit}
       C -2.71708e-01  5.13869e-02 -1.33815e-02
       O  9.22911e-01  1.64565e-01 -1.38452e-01
       H -1.88617e+00  2.03030e-01 -6.72587e-02
       H -6.88509e-01 -7.60422e-01  6.03602e-01
       L -2.75341e+00  1.62939e+00  2.25416e+00
       L -1.15769e+00  8.93740e-01  8.01729e-01
6
# CELL(abcABC):  459.05226   459.05226   459.05226    90.00000    90.00000    90.00000  Step:          32  Bead:       0 x_centroid{angstrom}  cell{atomic_unit}
       C -2.72517e-01  5.61550e-02 -1.68517e-02
       O  9.22838e-01  1.61337e-01 -1.37098e-01
       H -1.89510e+00  1.85519e-01 -4.65302e-02
       H -6.69208e-01 -7.48276e-01  6.02871e-01
       L -1.97039e+00  1.51164e+00  1.87198e+00
       L -1.14165e+00  6.35870e-01  9.27253e-01
6
# CELL(abcABC):  459.05226   459.05226   459.05226    90.00000    90.00000    90.00000  Step:          33  Bead:       0 x_centroid{angstrom}  cell{atomic_unit}
       C -2.73581e-01  6.01790e-02 -1.99084e-02
       O  9.22099e-01  1.58330e-01 -1.35823e-01
       H -1.89558e+00  1.73906e-01 -3.00482e-02
       H -6.44740e-01 -7.36697e-01  6.02680e-01
       L -1.21039e+00  1.42127e+00  1.52366e+00
       L -1.16004e+00  3.74078e-01  1.07802e+00
6
# CELL(abcABC):  459.05226   459.05226   459.05226    90.00000    90.00000    90.00000  Step:          34  Bead:       0 x_centroid{angstrom}  cell{atomic_unit}
       C -2.75147e-01  6.32804e-02 -2.24526e-02
       O  9.20958e-01  1.55782e-01 -1.34739e-01
       H -1.88750e+00  1.68000e-01 -1.75099e-02
       H -6.16452e-01 -7.27126e-01  6.03327e-01
       L -4.32556e-01  1.36502e+00  1.22465e+00
       L -1.14972e+00  1.15231e-01  1.26124e+00
6
# CELL(abcABC):  459.05226   459.05226   459.05226    90.00000    90.00000    90.00000  Step:          35  Bead:       0 x_centroid{angstrom}  cell{atomic_unit}
       C -2.77031e-01  6.55148e-02 -2.42832e-02
       O  9.19175e-01  1.53699e-01 -1.33927e-01
       H -1.86981e+00  1.67898e-01 -1.09231e-02
       H -5.83825e-01 -7.20404e-01  6.05717e-01
       L  2.90328e-01  1.28509e+00  9.16755e-01
       L -1.11035e+00 -1.38225e-01  1.44824e+00
6
# CELL(abcABC):  459.05226   459.05226   459.05226    90.00000    90.00000    90.00000  Step:          36  Bead:       0 x_centroid{angstrom}  cell{atomic_unit}
       C -2.78771e-01  6.68979e-02 -2.56081e-02
       O  9.16639e-01  1.52063e-01 -1.33273e-01
       H -1.84378e+00  1.74595e-01 -8.22460e-03
       H -5.49293e-01 -7.17406e-01  6.08503e-01
       L  1.00671e+00  1.20461e+00  6.04774e-01
       L -1.02616e+00 -4.24410e-01  1.62650e+00
6
# CELL(abcABC):  459.05226   459.05226   459.05226    90.00000    90.00000    90.00000  Step:          37  Bead:       0 x_centroid{angstrom}  cell{atomic_unit}
       C -2.80637e-01  6.77263e-02 -2.63291e-02
       O  9.13662e-01  1.50767e-01 -1.32970e-01
       H -1.80924e+00  1.85681e-01 -1.04355e-02
       H -5.14742e-01 -7.17608e-01  6.14628e-01
       L  1.69815e+00  1.13077e+00  1.88567e-01
       L -9.71377e-01 -6.84400e-01  1.79242e+00
6
# CELL(abcABC):  459.05226   459.05226   459.05226    90.00000    90.00000    90.00000  Step:          38  Bead:       0 x_centroid{angstrom}  cell{atomic_unit}
       C -2.82545e-01  6.76662e-02 -2.65163e-02
       O  9.10118e-01  1.50044e-01 -1.33072e-01
       H -1.76560e+00  2.01855e-01 -1.72632e-02
       H -4.79816e-01 -7.21434e-01  6.25455e-01
       L  2.38691e+00  1.06626e+00 -2.56157e-01
       L -9.09692e-01 -9.16581e-01  1.97955e+00
6
# CELL(abcABC):  459.05226   459.05226   459.05226    90.00000    90.00000    90.00000  Step:          39  Bead:       0 x_centroid{angstrom}  cell{atomic_unit}
       C -2.84677e-01  6.70590e-02 -2.60466e-02
       O  9.06126e-01  1.49719e-01 -1.33532e-01
       H -1.71188e+00  2.22595e-01 -2.97552e-02
       H -4.45166e-01 -7.29596e-01  6.39790e-01
       L  3.09435e+00  1.03480e+00 -7.19342e-01
       L -8.50048e-01 -1.21153e+00  2.17346e+00
6
# CELL(abcABC):  459.05226   459.05226   459.05226    90.00000    90.00000    90.00000  Step:          40  Bead:       0 x_centroid{angstrom}  cell{atomic_unit}
       C -2.87528e-01  6.52991e-02 -2.49133e-02
       O  9.02139e-01  1.50190e-01 -1.34299e-01
       H -1.64822e+00  2.49599e-01 -4.80775e-02
       H -4.12006e-01 -7.42958e-01  6.56927e-01
       L  3.75196e+00  9.95422e-01 -1.19158e+00
       L -7.29052e-01 -1.45867e+00  2.38347e+00
6
# CELL(abcABC):  459.05226   459.05226   459.05226    90.00000    90.00000    90.00000  Step:          41  Bead:       0 x_centroid{angstrom}  cell{atomic_unit}
       C -2.90872e-01  6.26261e-02 -2.28559e-02
       O  8.97911e-01  1.51138e-01 -1.35578e-01
       H -1.57309e+00  2.82746e-01 -7.11011e-02
       H -3.80537e-01 -7.59148e-01  6.75895e-01
       L  4.27845e+00  9.81666e-01 -1.69849e+00
       L -5.82825e-01 -1.72070e+00  2.61086e+00
6
# CELL(abcABC):  459.05226   459.05226   459.05226    90.00000    90.00000    90.00000  Step:          42  Bead:       0 x_centroid{angstrom}  cell{atomic_unit}
       C -2.94519e-01  5.93497e-02 -1.95677e-02
       O  8.93413e-01  1.52520e-01 -1.37573e-01
       H -1.48668e+00  3.19224e-01 -9.82782e-02
       H -3.52424e-01 -7.78371e-01  6.95713e-01
       L  4.78528e+00  9.48687e-01 -2.22731e+00
       L -4.95396e-01 -1.95448e+00  2.83449e+00
6
# CELL(abcABC):  459.05226   459.05226   459.05226    90.00000    90.00000    90.00000  Step:          43  Bead:       0 x_centroid{angstrom}  cell{atomic_unit}
       C -2.98401e-01  5.51264e-02 -1.52229e-02
       O  8.88906e-01  1.54350e-01 -1.40014e-01
       H -1.39351e+00  3.60066e-01 -1.29963e-01
       H -3.28114e-01 -7.97806e-01  7.14533e-01
       L  5.27429e+00  8.94846e-01 -2.72895e+00
       L -3.74835e-01 -2.15650e+00  3.06314e+00
6
# CELL(abcABC):  459.05226   459.05226   459.05226    90.00000    90.00000    90.00000  Step:          44  Bead:       0 x_centroid{angstrom}  cell{atomic_unit}
       C -3.01714e-01  5.01363e-02 -1.00210e-02
       O  8.84029e-01  1.56524e-01 -1.42801e-01
       H -1.29608e+00  4.03302e-01 -1.66367e-01
       H -3.08937e-01 -8.15966e-01  7.33330e-01
       L  5.67074e+00  8.29401e-01 -3.20110e+00
       L -2.51665e-01 -2.31549e+00  3.27217e+00
6
# CELL(abcABC):  459.05226   459.05226   459.05226    90.00000    90.00000    90.00000  Step:          45  Bead:       0 x_centroid{angstrom}  cell{atomic_unit}
       C -3.04519e-01  4.37419e-02 -3.49706e-03
       O  8.79171e-01  1.59465e-01 -1.46331e-01
       H -1.19803e+00  4.50024e-01 -2.05183e-01
       H -2.96712e-01 -8.33073e-01  7.50599e-01
       L  6.00267e+00  7.60729e-01 -3.68647e+00
       L -1.06423e-01 -2.43889e+00  3.44339e+00
6
# CELL(abcABC):  459.05226   459.05226   459.05226    90.00000    90.00000    90.00000  Step:          46  Bead:       0 x_centroid{angstrom}  cell{atomic_unit}
       C -3.05647e-01  3.60938e-02  3.97675e-03
       O  8.74064e-01  1.62704e-01 -1.50071e-01
       H -1.10773e+00  5.04305e-01 -2.50118e-01
       H -2.92757e-01 -8.47543e-01  7.66027e-01
       L  6.31147e+00  6.76727e-01 -4.13167e+00
       L  7.12109e-02 -2.51466e+00  3.54899e+00
6
# CELL(abcABC):  459.05226   459.05226   459.05226    90.00000    90.00000    90.00000  Step:          47  Bead:       0 x_centroid{angstrom}  cell{atomic_unit}
       C -3.05399e-01  2.70372e-02  1.26787e-02
       O  8.69000e-01  1.66274e-01 -1.54144e-01
       H -1.02838e+00  5.67200e-01 -3.00313e-01
       H -2.94971e-01 -8.59086e-01  7.77351e-01
       L  6.59476e+00  5.67111e-01 -4.52685e+00
       L  3.07316e-01 -2.59660e+00  3.63198e+00
6
# CELL(abcABC):  459.05226   459.05226   459.05226    90.00000    90.00000    90.00000  Step:          48  Bead:       0 x_centroid{angstrom}  cell{atomic_unit}
       C -3.03469e-01  1.64722e-02  2.25424e-02
       O  8.64007e-01  1.70194e-01 -1.58535e-01
       H -9.61886e-01  6.38999e-01 -3.55837e-01
       H -3.05440e-01 -8.67088e-01  7.85188e-01
       L  6.78961e+00  4.44299e-01 -4.83809e+00
       L  5.53229e-01 -2.68301e+00  3.67912e+00
6
# CELL(abcABC):  459.05226   459.05226   459.05226    90.00000    90.00000    90.00000  Step:          49  Bead:       0 x_centroid{angstrom}  cell{atomic_unit}
       C -3.00419e-01  4.96103e-03  3.34794e-02
       O  8.59189e-01  1.74294e-01 -1.63226e-01
       H -9.04630e-01  7.15174e-01 -4.15764e-01
       H -3.22727e-01 -8.71072e-01  7.89429e-01
       L  6.87521e+00  3.02159e-01 -5.18021e+00
       L  7.61477e-01 -2.75197e+00  3.69329e+00
6
# CELL(abcABC):  459.05226   459.05226   459.05226    90.00000    90.00000    90.00000  Step:          50  Bead:       0 x_centroid{angstrom}  cell{atomic_unit}
       C -2.96441e-01 -7.30457e-03  4.48879e-02
       O  8.54482e-01  1.78641e-01 -1.67958e-01
       H -8.53179e-01  7.91628e-01 -4.76157e-01
       H -3.47040e-01 -8.70218e-01  7.89097e-01
       L  6.90067e+00  1.28337e-01 -5.40863e+00
       L  1.04339e+00 -2.84047e+00  3.72046e+00
6
# CELL(abcABC):  459.05226   459.05226   459.05226    90.00000    90.00000    90.00000  Step:          51  Bead:       0 x_centroid{angstrom}  cell{atomic_unit}
       C -2.91715e-01 -1.96689e-02  5.69044e-02
       O  8.49983e-01  1.83145e-01 -1.73145e-01
       H -8.07353e-01  8.63790e-01 -5.34350e-01
       H -3.77896e-01 -8.66406e-01  7.86534e-01
       L  6.86424e+00 -6.64609e-02 -5.61290e+00
       L  1.32169e+00 -2.89166e+00  3.74320e+00
6
# CELL(abcABC):  459.05226   459.05226   459.05226    90.00000    90.00000    90.00000  Step:          52  Bead:       0 x_centroid{angstrom}  cell{atomic_unit}
       C -2.86686e-01 -3.16505e-02  6.85809e-02
       O  8.45775e-01  1.87659e-01 -1.78354e-01
       H -7.64501e-01  9.28365e-01 -5.86389e-01
       H -4.13931e-01 -8.59740e-01  7.82245e-01
       L  6.73242e+00 -2.86060e-01 -5.81907e+00
       L  1.54445e+00 -2.89388e+00  3.72882e+00
6
# CELL(abcABC):  459.05226   459.05226   459.05226    90.00000    90.00000    90.00000  Step:          53  Bead:       0 x_centroid{angstrom}  cell{atomic_unit}
       C -2.81299e-01 -4.30169e-02  7.98781e-02
       O  8.41948e-01  1.92197e-01 -1.83494e-01
       H -7.27708e-01  9.83810e-01 -6.33096e-01
       H -4.54182e-01 -8.51625e-01  7.76018e-01
       L  6.55791e+00 -5.49623e-01 -5.95268e+00
       L  1.76059e+00 -2.91447e+00  3.69537e+00
6
# CELL(abcABC):  459.05226   459.05226   459.05226    90.00000    90.00000    90.00000  Step:          54  Bead:       0 x_centroid{angstrom}  cell{atomic_unit}
       C -2.75997e-01 -5.35986e-02  9.04596e-02
       O  8.38723e-01  1.96778e-01 -1.88437e-01
       H -6.94680e-01  1.03013e+00 -6.73658e-01
       H -4.99218e-01 -8.44441e-01  7.69019e-01
       L  6.38658e+00 -8.02285e-01 -5.99556e+00
       L  1.96364e+00 -2.88721e+00  3.61762e+00
6
# CELL(abcABC):  459.05226   459.05226   459.05226    90.00000    90.00000    90.00000  Step:          55  Bead:       0 x_centroid{angstrom}  cell{atomic_unit}
       C -2.70654e-01 -6.31955e-02  1.00022e-01
       O  8.36115e-01  2.01169e-01 -1.93057e-01
       H -6.68476e-01  1.06725e+00 -7.08282e-01
       H -5.47708e-01 -8.36775e-01  7.63069e-01
       L  6.17393e+00 -1.05990e+00 -5.92934e+00
       L  2.20827e+00 -2.85732e+00  3.46714e+00
6
# CELL(abcABC):  459.05226   459.05226   459.05226    90.00000    90.00000    90.00000  Step:          56  Bead:       0 x_centroid{angstrom}  cell{atomic_unit}
       C -2.65323e-01 -7.10628e-02  1.08495e-01
       O  8.34106e-01  2.04972e-01 -1.97450e-01
       H -6.48115e-01  1.09480e+00 -7.35512e-01
       H -5.99675e-01 -8.30787e-01  7.59083e-01
       L  5.93988e+00 -1.37544e+00 -5.77444e+00
       L  2.40491e+00 -2.84346e+00  3.28040e+00
6
# CELL(abcABC):  459.05226   459.05226   459.05226    90.00000    90.00000    90.00000  Step:          57  Bead:       0 x_centroid{angstrom}  cell{atomic_unit}
       C -2.60086e-01 -7.71093e-02  1.15917e-01
       O  8.32713e-01  2.08088e-01 -2.01536e-01
       H -6.35083e-01  1.11283e+00 -7.55989e-01
       H -6.52968e-01 -8.26094e-01  7.55979e-01
       L  5.70654e+00 -1.65784e+00 -5.57690e+00
       L  2.57415e+00 -2.80193e+00  3.09146e+00
6
# CELL(abcABC):  459.05226   459.05226   459.05226    90.00000    90.00000    90.00000  Step:          58  Bead:       0 x_centroid{angstrom}  cell{atomic_unit}
       C -2.54898e-01 -8.17016e-02  1.22148e-01
       O  8.31777e-01  2.10749e-01 -2.05275e-01
       H -6.29048e-01  1.12299e+00 -7.69058e-01
       H -7.05891e-01 -8.23698e-01  7.54083e-01
       L  5.42342e+00 -1.93960e+00 -5.29132e+00
       L  2.71066e+00 -2.66316e+00  2.90032e+00
6
# CELL(abcABC):  459.05226   459.05226   459.05226    90.00000    90.00000    90.00000  Step:          59  Bead:       0 x_centroid{angstrom}  cell{atomic_unit}
       C -2.49585e-01 -8.46451e-02  1.27098e-01
       O  8.31235e-01  2.12848e-01 -2.08665e-01
       H -6.31152e-01  1.12474e+00 -7.72620e-01
       H -7.58393e-01 -8.23619e-01  7.52425e-01
       L  5.10073e+00 -2.22956e+00 -4.99644e+00
       L  2.85322e+00 -2.51306e+00  2.71895e+00
6
# CELL(abcABC):  459.05226   459.05226   459.05226    90.00000    90.00000    90.00000  Step:          60  Bead:       0 x_centroid{angstrom}  cell{atomic_unit}
       C -2.44779e-01 -8.62190e-02  1.31321e-01
       O  8.31349e-01  2.14346e-01 -2.11918e-01
       H -6.38654e-01  1.11821e+00 -7.69981e-01
       H -8.09848e-01 -8.22053e-01  7.51007e-01
       L  4.72736e+00 -2.53056e+00 -4.66062e+00
       L  2.99653e+00 -2.32767e+00  2.52601e+00
6
# CELL(abcABC):  459.05226   459.05226   459.05226    90.00000    90.00000    90.00000  Step:          61  Bead:       0 x_centroid{angstrom}  cell{atomic_unit}
       C -2.40711e-01 -8.63961e-02  1.34728e-01
       O  8.32283e-01  2.15347e-01 -2.14856e-01
       H -6.53466e-01  1.10254e+00 -7.60097e-01
       H -8.58137e-01 -8.20073e-01  7.47114e-01
       L  4.25283e+00 -2.84498e+00 -4.33051e+00
       L  3.11491e+00 -2.15326e+00  2.30737e+00
6
# CELL(abcABC):  459.05226   459.05226   459.05226    90.00000    90.00000    90.00000  Step:          62  Bead:       0 x_centroid{angstrom}  cell{atomic_unit}
       C -2.37428e-01 -8.52455e-02  1.37217e-01
       O  8.33903e-01  2.15731e-01 -2.17464e-01
       H -6.73595e-01  1.07834e+00 -7.42584e-01
       H -9.02592e-01 -8.15614e-01  7.41263e-01
       L  3.73177e+00 -3.15229e+00 -3.94488e+00
       L  3.15760e+00 -1.97738e+00  2.07366e+00
6
# CELL(abcABC):  459.05226   459.05226   459.05226    90.00000    90.00000    90.00000  Step:          63  Bead:       0 x_centroid{angstrom}  cell{atomic_unit}
       C -2.34850e-01 -8.30067e-02  1.38737e-01
       O  8.36104e-01  2.15573e-01 -2.19613e-01
       H -7.00351e-01  1.04641e+00 -7.19251e-01
       H -9.41215e-01 -8.07802e-01  7.33828e-01
       L  3.23158e+00 -3.40829e+00 -3.50679e+00
       L  3.15184e+00 -1.80964e+00  1.79087e+00
6
# CELL(abcABC):  459.05226   459.05226   459.05226    90.00000    90.00000    90.00000  Step:          64  Bead:       0 x_centroid{angstrom}  cell{atomic_unit}
       C -2.33035e-01 -7.95162e-02  1.39356e-01
       O  8.38898e-01  2.14853e-01 -2.21352e-01
       H -7.33124e-01  1.00716e+00 -6.88586e-01
       H -9.74125e-01 -7.98668e-01  7.23312e-01
       L  2.76486e+00 -3.62883e+00 -3.03507e+00
       L  3.08616e+00 -1.66895e+00  1.48556e+00
6
# CELL(abcABC):  459.05226   459.05226   459.05226    90.00000    90.00000    90.00000  Step:          65  Bead:       0 x_centroid{angstrom}  cell{atomic_unit}
       C -2.31907e-01 -7.49102e-02  1.38800e-01
       O  8.42106e-01  2.13616e-01 -2.22675e-01
       H -7.69674e-01  9.59897e-01 -6.49808e-01
       H -1.00162e+00 -7.86608e-01  7.12047e-01
       L  2.23310e+00 -3.84335e+00 -2.52822e+00
       L  3.00833e+00 -1.54142e+00  1.18431e+00
6
# CELL(abcABC):  459.05226   459.05226   459.05226    90.00000    90.00000    90.00000  Step:          66  Bead:       0 x_centroid{angstrom}  cell{atomic_unit}
       C -2.31709e-01 -6.95852e-02  1.37013e-01