6
# CELL(abcABC):  459.05226   459.05226   459.05226    90.00000    90.00000    90.00000  Step:           0  Bead:       0 x_centroid{angstrom}  cell{atomic_unit}
       C -3.39887e-01 -1.13437e-01  8.06659e-02
       O  8.43483e-01  2.62672e-01 -1.81512e-01
       H -7.35799e-02  8.16467e-01 -6.61432e-01
       H -4.30016e-01 -9.65701e-01  7.62278e-01
       L  0.00000e+00  0.00000e+00  0.00000e+00
       L  0.00000e+00  0.00000e+00  0.00000e+00
6
# CELL(abcABC):  459.05226   459.05226   459.05226    90.00000    90.00000    90.00000  Step:           1  Bead:       0 x_centroid{angstrom}  cell{atomic_unit}
       C -3.41493e-01 -1.13043e-01  7.95745e-02
       O  8.44839e-01  2.62301e-01 -1.80210e-01
       H -6.30667e-02  8.07225e-01 -6.70012e-01
       H -4.42723e-01 -9.55448e-01  7.63209e-01
       L -3.10709e-01  4.42534e-01  2.55105e-01
       L -2.82170e-02 -1.21700e-01 -2.82899e-01
6
# CELL(abcABC):  459.05226   459.05226   459.05226    90.00000    90.00000    90.00000  Step:           2  Bead:       0 x_centroid{angstrom}  cell{atomic_unit}
       C -3.43004e-01 -1.12564e-01  7.87696e-02
       O  8.46050e-01  2.61753e-01 -1.79215e-01
       H -5.22192e-02  7.98713e-01 -6.78463e-01
       H -4.54609e-01 -9.44122e-01  7.65466e-01
       L -6.47465e-01  8.38898e-01  5.18849e-01
       L -4.18761e-02 -2.15932e-01 -5.69482e-01
6
# CELL(abcABC):  459.05226   459.05226   459.05226    90.00000    90.00000    90.00000  Step:           3  Bead:       0 x_centroid{angstrom}  cell{atomic_unit}
       C -3.44524e-01 -1.11856e-01  7.79900e-02
       O  8.47203e-01  2.61027e-01 -1.78293e-01
       H -4.06993e-02  7.90729e-01 -6.87651e-01
       H -4.66149e-01 -9.33210e-01  7.69292e-01
       L -9.76804e-01  1.22059e+00  7.92886e-01
       L -2.13137e-02 -2.60971e-01 -8.23884e-01
6
# CELL(abcABC):  459.05226   459.05226   459.05226    90.00000    90.00000    90.00000  Step:           4  Bead:       0 x_centroid{angstrom}  cell{atomic_unit}
       C -3.45889e-01 -1.10930e-01  7.70035e-02
       O  8.48161e-01  2.60173e-01 -1.77225e-01
       H -2.79946e-02  7.84053e-01 -6.98023e-01
       H -4.77635e-01 -9.24208e-01  7.74384e-01
       L -1.27895e+00  1.61484e+00  1.14038e+00
       L  4.59395e-03 -3.08785e-01 -1.00167e+00
6
# CELL(abcABC):  459.05226   459.05226   459.05226    90.00000    90.00000    90.00000  Step:           5  Bead:       0 x_centroid{angstrom}  cell{atomic_unit}
       C -3.47446e-01 -1.09855e-01  7.60841e-02
       O  8.49203e-01  2.59148e-01 -1.76105e-01
       H -1.49662e-02  7.80188e-01 -7.10296e-01
       H -4.88534e-01 -9.17090e-01  7.79762e-01
       L -1.50471e+00  2.01248e+00  1.44662e+00
       L  2.39687e-02 -3.41462e-01 -1.18339e+00
6
# CELL(abcABC):  459.05226   459.05226   459.05226    90.00000    90.00000    90.00000  Step:           6  Bead:       0 x_centroid{angstrom}  cell{atomic_unit}
       C -3.49044e-01 -1.08797e-01  7.53625e-02
       O  8.50181e-01  2.58254e-01 -1.75206e-01
       H -1.78474e-03  7.75709e-01 -7.21653e-01
       H -4.98076e-01 -9.11228e-01  7.85436e-01
       L -1.75195e+00  2.40403e+00  1.69809e+00
       L  3.73760e-02 -3.59169e-01 -1.41683e+00
6
# CELL(abcABC):  459.05226   459.05226   459.05226    90.00000    90.00000    90.00000  Step:           7  Bead:       0 x_centroid{angstrom}  cell{atomic_unit}
       C -3.50786e-01 -1.07913e-01  7.46969e-02
       O  8.50940e-01  2.57531e-01 -1.74487e-01
       H  1.50671e-02  7.72409e-01 -7.32845e-01
       H -5.06124e-01 -9.07170e-01  7.93141e-01
       L -1.97432e+00  2.80202e+00  1.98654e+00
       L  8.58605e-02 -4.22376e-01 -1.68116e+00
6
# CELL(abcABC):  459.05226   459.05226   459.05226    90.00000    90.00000    90.00000  Step:           8  Bead:       0 x_centroid{angstrom}  cell{atomic_unit}
       C -3.52454e-01 -1.07197e-01  7.40861e-02
       O  8.51297e-01  2.57086e-01 -1.73822e-01
       H  3.43360e-02  7.68713e-01 -7.45047e-01
       H -5.11094e-01 -9.05141e-01  8.02077e-01
       L -2.16294e+00  3.18721e+00  2.23120e+00
       L  1.01248e-01 -4.37899e-01 -1.95815e+00
6
# CELL(abcABC):  459.05226   459.05226   459.05226    90.00000    90.00000    90.00000  Step:           9  Bead:       0 x_centroid{angstrom}  cell{atomic_unit}
       C -3.54199e-01 -1.06707e-01  7.32071e-02
       O  8.51318e-01  2.56804e-01 -1.73078e-01
       H  5.87723e-02  7.65065e-01 -7.58057e-01
       H -5.14973e-01 -9.03039e-01  8.13806e-01
       L -2.29975e+00  3.55380e+00  2.40600e+00
       L  7.29996e-02 -4.65847e-01 -2.22817e+00
6
# CELL(abcABC):  459.05226   459.05226   459.05226    90.00000    90.00000    90.00000  Step:          10  Bead:       0 x_centroid{angstrom}  cell{atomic_unit}
       C -3.56147e-01 -1.06373e-01  7.22703e-02
       O  8.51141e-01  2.56718e-01 -1.72206e-01
       H  8.86665e-02  7.60827e-01 -7.71444e-01
       H -5.18781e-01 -9.01552e-01  8.24516e-01
       L -2.46589e+00  3.85177e+00  2.60736e+00
       L  1.07966e-01 -5.30802e-01 -2.42742e+00
6
# CELL(abcABC):  459.05226   459.05226   459.05226    90.00000    90.00000    90.00000  Step:          11  Bead:       0 x_centroid{angstrom}  cell{atomic_unit}
       C -3.58341e-01 -1.06044e-01  7.14740e-02
       O  8.50607e-01  2.56529e-01 -1.71462e-01
       H  1.25117e-01  7.57395e-01 -7.84293e-01
       H -5.20541e-01 -8.99117e-01  8.35087e-01
       L -2.73312e+00  4.11633e+00  2.72336e+00
       L  2.50283e-01 -6.34641e-01 -2.64635e+00
6
# CELL(abcABC):  459.05226   459.05226   459.05226    90.00000    90.00000    90.00000  Step:          12  Bead:       0 x_centroid{angstrom}  cell{atomic_unit}
       C -3.60720e-01 -1.06010e-01  7.08518e-02
       O  8.49640e-01  2.56440e-01 -1.70856e-01
       H  1.69026e-01  7.54485e-01 -7.96911e-01
       H -5.20681e-01 -8.95233e-01  8.45534e-01
       L -3.01304e+00  4.32195e+00  2.82432e+00
       L  3.94888e-01 -7.71871e-01 -2.78812e+00
6
# CELL(abcABC):  459.05226   459.05226   459.05226    90.00000    90.00000    90.00000  Step:          13  Bead:       0 x_centroid{angstrom}  cell{atomic_unit}
       C -3.63490e-01 -1.06419e-01  7.03513e-02
       O  8.48362e-01  2.56442e-01 -1.70348e-01
       H  2.20905e-01  7.54343e-01 -8.08556e-01
       H -5.19222e-01 -8.90323e-01  8.55110e-01
       L -3.25567e+00  4.57395e+00  2.89200e+00
       L  5.57475e-01 -8.89290e-01 -2.92523e+00
6
# CELL(abcABC):  459.05226   459.05226   459.05226    90.00000    90.00000    90.00000  Step:          14  Bead:       0 x_centroid{angstrom}  cell{atomic_unit}
       C -3.66865e-01 -1.07198e-01  6.99655e-02
       O  8.46767e-01  2.56523e-01 -1.69841e-01
       H  2.82435e-01  7.56798e-01 -8.21565e-01
       H -5.15165e-01 -8.84819e-01  8.64719e-01
       L -3.48357e+00  4.77090e+00  2.94005e+00
       L  6.74050e-01 -1.00390e+00 -3.04902e+00
6
# CELL(abcABC):  459.05226   459.05226   459.05226    90.00000    90.00000    90.00000  Step:          15  Bead:       0 x_centroid{angstrom}  cell{atomic_unit}
       C -3.70865e-01 -1.08451e-01  7.00522e-02
       O  8.44979e-01  2.56789e-01 -1.69440e-01
       H  3.52454e-01  7.61111e-01 -8.36027e-01
       H -5.09073e-01 -8.78510e-01  8.71803e-01
       L -3.68159e+00  4.96532e+00  2.95807e+00
       L  7.70525e-01 -1.07114e+00 -3.12004e+00
6
# CELL(abcABC):  459.05226   459.05226   459.05226    90.00000    90.00000    90.00000  Step:          16  Bead:       0 x_centroid{angstrom}  cell{atomic_unit}
       C -3.75355e-01 -1.10166e-01  7.01759e-02
       O  8.42873e-01  2.56972e-01 -1.69013e-01
       H  4.30857e-01  7.69529e-01 -8.51788e-01
       H -5.00514e-01 -8.69415e-01  8.79301e-01
       L -3.87108e+00  5.11933e+00  2.96611e+00
       L  9.21125e-01 -1.16747e+00 -3.09413e+00
6
# CELL(abcABC):  459.05226   459.05226   459.05226    90.00000    90.00000    90.00000  Step:          17  Bead:       0 x_centroid{angstrom}  cell{atomic_unit}
       C -3.80171e-01 -1.11937e-01  7.04247e-02
       O  8.40472e-01  2.56976e-01 -1.68576e-01
       H  5.14405e-01  7.80864e-01 -8.69160e-01
       H -4.88571e-01 -8.59759e-01  8.86766e-01
       L -4.00219e+00  5.27027e+00  2.87337e+00
       L  1.05819e+00 -1.24596e+00 -3.00419e+00
6
# CELL(abcABC):  459.05226   459.05226   459.05226    90.00000    90.00000    90.00000  Step:          18  Bead:       0 x_centroid{angstrom}  cell{atomic_unit}
       C -3.85362e-01 -1.14137e-01  7.09419e-02
       O  8.37882e-01  2.57131e-01 -1.68248e-01
       H  6.03807e-01  7.94392e-01 -8.89143e-01
       H -4.75062e-01 -8.49536e-01  8.95381e-01
       L -4.10751e+00  5.37623e+00  2.75643e+00
       L  1.25172e+00 -1.33844e+00 -2.88567e+00
6
# CELL(abcABC):  459.05226   459.05226   459.05226    90.00000    90.00000    90.00000  Step:          19  Bead:       0 x_centroid{angstrom}  cell{atomic_unit}
       C -3.91024e-01 -1.16336e-01  7.16203e-02
       O  8.35255e-01  2.57089e-01 -1.67864e-01
       H  6.97121e-01  8.10414e-01 -9.12180e-01
       H -4.59294e-01 -8.38681e-01  9.04201e-01
       L -4.13761e+00  5.43531e+00  2.63183e+00
       L  1.47388e+00 -1.41754e+00 -2.69509e+00
6
# CELL(abcABC):  459.05226   459.05226   459.05226    90.00000    90.00000    90.00000  Step:          20  Bead:       0 x_centroid{angstrom}  cell{atomic_unit}
       C -3.96989e-01 -1.18633e-01  7.19210e-02
       O  8.32575e-01  2.57070e-01 -1.67052e-01
       H  7.91140e-01  8.27151e-01 -9.36901e-01
       H -4.39829e-01 -8.27707e-01  9.12436e-01
       L -4.16362e+00  5.46218e+00  2.49630e+00
       L  1.72174e+00 -1.50389e+00 -2.52231e+00
6
# CELL(abcABC):  459.05226   459.05226   459.05226    90.00000    90.00000    90.00000  Step:          21  Bead:       0 x_centroid{angstrom}  cell{atomic_unit}
       C -4.03195e-01 -1.20493e-01  7.21282e-02
       O  8.29952e-01  2.56770e-01 -1.66210e-01
       H  8.84080e-01  8.42790e-01 -9.60489e-01
       H -4.17263e-01 -8.16384e-01  9.20172e-01
       L -4.21225e+00  5.41757e+00  2.37298e+00
       L  1.92537e+00 -1.54774e+00 -2.36799e+00
6
# CELL(abcABC):  459.05226   459.05226   459.05226    90.00000    90.00000    90.00000  Step:          22  Bead:       0 x_centroid{angstrom}  cell{atomic_unit}
       C -4.09315e-01 -1.22238e-01  7.18615e-02
       O  8.27210e-01  2.56581e-01 -1.65341e-01
       H  9.76053e-01  8.55055e-01 -9.79638e-01
       H -3.92901e-01 -8.04761e-01  9.28700e-01
       L -4.19098e+00  5.31262e+00  2.24504e+00
       L  2.12128e+00 -1.60268e+00 -2.23116e+00
6
# CELL(abcABC):  459.05226   459.05226   459.05226    90.00000    90.00000    90.00000  Step:          23  Bead:       0 x_centroid{angstrom}  cell{atomic_unit}
       C -4.15501e-01 -1.24012e-01  7.15080e-02
       O  8.24637e-01  2.56708e-01 -1.64761e-01
       H  1.06362e+00  8.62991e-01 -9.92893e-01
       H -3.66072e-01 -7.93491e-01  9.36932e-01
       L -4.08479e+00  5.21053e+00  2.12585e+00
       L  2.32346e+00 -1.64148e+00 -2.05774e+00
6
# CELL(abcABC):  459.05226   459.05226   459.05226    90.00000    90.00000    90.00000  Step:          24  Bead:       0 x_centroid{angstrom}  cell{atomic_unit}
       C -4.21673e-01 -1.25318e-01  7.08586e-02
       O  8.22327e-01  2.56799e-01 -1.64477e-01
       H  1.14519e+00  8.65599e-01 -9.97847e-01
       H -3.37574e-01 -7.81849e-01  9.45067e-01
       L -3.97948e+00  4.98426e+00  1.99161e+00
       L  2.47986e+00 -1.66141e+00 -1.83599e+00
6
# CELL(abcABC):  459.05226   459.05226   459.05226    90.00000    90.00000    90.00000  Step:          25  Bead:       0 x_centroid{angstrom}  cell{atomic_unit}
       C -4.27642e-01 -1.26511e-01  6.97678e-02
       O  8.20385e-01  2.57198e-01 -1.64459e-01
       H  1.21893e+00  8.62263e-01 -9.93807e-01
       H -3.09492e-01 -7.70469e-01  9.53689e-01
       L -3.88402e+00  4.68843e+00  1.88166e+00
       L  2.60553e+00 -1.64437e+00 -1.63097e+00
6
# CELL(abcABC):  459.05226   459.05226   459.05226    90.00000    90.00000    90.00000  Step:          26  Bead:       0 x_centroid{angstrom}  cell{atomic_unit}
       C -4.33421e-01 -1.27582e-01  6.85293e-02
       O  8.18774e-01  2.57923e-01 -1.64874e-01
       H  1.28488e+00  8.52001e-01 -9.81076e-01
       H -2.81175e-01 -7.58820e-01  9.62234e-01
       L -3.66866e+00  4.35601e+00  1.76347e+00
       L  2.71221e+00 -1.57953e+00 -1.39266e+00
6
# CELL(abcABC):  459.05226   459.05226   459.05226    90.00000    90.00000    90.00000  Step:          27  Bead:       0 x_centroid{angstrom}  cell{atomic_unit}
       C -4.39042e-01 -1.28630e-01  6.69918e-02
       O  8.17521e-01  2.58908e-01 -1.65585e-01
       H  1.34280e+00  8.36419e-01 -9.59326e-01
       H -2.52366e-01 -7.46244e-01  9.70041e-01
       L -3.46181e+00  4.04561e+00  1.61915e+00
       L  2.77829e+00 -1.52279e+00 -1.16763e+00
6
# CELL(abcABC):  459.05226   459.05226   459.05226    90.00000    90.00000    90.00000  Step:          28  Bead:       0 x_centroid{angstrom}  cell{atomic_unit}
       C -4.44305e-01 -1.29396e-01  6.50515e-02
       O  8.16725e-01  2.60030e-01 -1.66281e-01
       H  1.39041e+00  8.14903e-01 -9.31357e-01
       H -2.24772e-01 -7.33285e-01  9.76238e-01
       L -3.24548e+00  3.72856e+00  1.39962e+00
       L  2.80450e+00 -1.42093e+00 -9.34857e-01
6
# CELL(abcABC):  459.05226   459.05226   459.05226    90.00000    90.00000    90.00000  Step:          29  Bead:       0 x_centroid{angstrom}  cell{atomic_unit}
       C -4.49337e-01 -1.29708e-01  6.32459e-02
       O  8.16466e-01  2.61101e-01 -1.67490e-01
       H  1.42707e+00  7.89441e-01 -8.96131e-01
       H -1.97450e-01 -7.20981e-01  9.81709e-01
       L -3.06612e+00  3.43009e+00  1.15205e+00
       L  2.79275e+00 -1.35637e+00 -6.78848e-01
6
# CELL(abcABC):  459.05226   459.05226   459.05226    90.00000    90.00000    90.00000  Step:          30  Bead:       0 x_centroid{angstrom}  cell{atomic_unit}
       C -4.53712e-01 -1.29859e-01  6.16778e-02
       O  8.16485e-01  2.62167e-01 -1.69269e-01
       H  1.45285e+00  7.60881e-01 -8.54571e-01
       H -1.71517e-01 -7.07417e-01  9.87100e-01
       L -2.84995e+00  3.08727e+00  8.74874e-01
       L  2.79446e+00 -1.26495e+00 -4.37308e-01
6
# CELL(abcABC):  459.05226   459.05226   459.05226    90.00000    90.00000    90.00000  Step:          31  Bead:       0 x_centroid{angstrom}  cell{atomic_unit}
       C -4.57746e-01 -1.29950e-01  6.00142e-02
       O  8.17074e-01  2.63415e-01 -1.71083e-01
       H  1.46850e+00  7.28890e-01 -8.09289e-01
       H -1.48586e-01 -6.94021e-01  9.90465e-01
       L -2.60105e+00  2.73903e+00  5.74153e-01
       L  2.81027e+00 -1.15134e+00 -1.99033e-01
6
# CELL(abcABC):  459.05226   459.05226   459.05226    90.00000    90.00000    90.00000  Step:          32  Bead:       0 x_centroid{angstrom}  cell{atomic_unit}
       C -4.61275e-01 -1.29780e-01  5.84176e-02
       O  8.18100e-01  2.64639e-01 -1.72982e-01
       H  1.47429e+00  6.93813e-01 -7.62609e-01
       H -1.28774e-01 -6.80295e-01  9.92989e-01
       L -2.35393e+00  2.39952e+00  3.12388e-01
       L  2.84720e+00 -1.01207e+00 -1.26558e-03
6
# CELL(abcABC):  459.05226   459.05226   459.05226    90.00000    90.00000    90.00000  Step:          33  Bead:       0 x_centroid{angstrom}  cell{atomic_unit}
       C -4.64160e-01 -1.29371e-01  5.69796e-02
       O  8.19319e-01  2.65642e-01 -1.74823e-01
       H  1.47335e+00  6.58666e-01 -7.16082e-01
       H -1.12994e-01 -6.65837e-01  9.92855e-01
       L -2.03939e+00  2.09193e+00  5.76229e-02
       L  2.86729e+00 -8.87349e-01  1.81948e-01
6
# CELL(abcABC):  459.05226   459.05226   459.05226    90.00000    90.00000    90.00000  Step:          34  Bead:       0 x_centroid{angstrom}  cell{atomic_unit}
       C -4.66418e-01 -1.28690e-01  5.54750e-02
       O  8.20552e-01  2.66221e-01 -1.76218e-01
       H  1.46900e+00  6.26438e-01 -6.74366e-01
       H -1.01470e-01 -6.50842e-01  9.91263e-01
       L -1.74176e+00  1.81841e+00 -1.82483e-01
       L  2.89577e+00 -7.60260e-01  3.34112e-01
6
# CELL(abcABC):  459.05226   459.05226   459.05226    90.00000    90.00000    90.00000  Step:          35  Bead:       0 x_centroid{angstrom}  cell{atomic_unit}
       C -4.68056e-01 -1.27987e-01  5.40871e-02
       O  8.21387e-01  2.66459e-01 -1.77183e-01
       H  1.46726e+00  6.00103e-01 -6.40649e-01
       H -9.35848e-02 -6.36585e-01  9.89444e-01
       L -1.44116e+00  1.52097e+00 -4.41973e-01
       L  2.81211e+00 -6.10019e-01  5.09040e-01
6
# CELL(abcABC):  459.05226   459.05226   459.05226    90.00000    90.00000    90.00000  Step:          36  Bead:       0 x_centroid{angstrom}  cell{atomic_unit}
       C -4.69121e-01 -1.26903e-01  5.27063e-02
       O  8.21559e-01  2.65870e-01 -1.77311e-01
       H  1.47475e+00  5.82408e-01 -6.19994e-01
       H -9.12147e-02 -6.22381e-01  9.87281e-01
       L -1.14571e+00  1.22541e+00 -6.95201e-01
       L  2.69460e+00 -4.44227e-01  7.50589e-01
6
# CELL(abcABC):  459.05226   459.05226   459.05226    90.00000    90.00000    90.00000  Step:          37  Bead:       0 x_centroid{angstrom}  cell{atomic_unit}
       C -4.69411e-01 -1.25791e-01  5.13435e-02
       O  8.20801e-01  2.64683e-01 -1.76510e-01
       H  1.49386e+00  5.74197e-01 -6.13458e-01
       H -9.49432e-02 -6.08524e-01  9.84293e-01
       L -8.21099e-01  9.28519e-01 -9.37483e-01
       L  2.55349e+00 -2.26719e-01  9.63532e-01
6
# CELL(abcABC):  459.05226   459.05226   459.05226    90.00000    90.00000    90.00000  Step:          38  Bead:       0 x_centroid{angstrom}  cell{atomic_unit}
       C -4.68923e-01 -1.24675e-01  5.00684e-02
       O  8.19233e-01  2.63082e-01 -1.75084e-01
       H  1.52212e+00  5.73347e-01 -6.19336e-01
       H -1.04193e-01 -5.95526e-01  9.82783e-01
       L -5.04998e-01  6.43785e-01 -1.17471e+00
       L  2.38382e+00 -8.55662e-03  1.11352e+00
6
# CELL(abcABC):  459.05226   459.05226   459.05226    90.00000    90.00000    90.00000  Step:          39  Bead:       0 x_centroid{angstrom}  cell{atomic_unit}
       C -4.67888e-01 -1.24138e-01  4.87565e-02
       O  8.17309e-01  2.61601e-01 -1.73090e-01
       H  1.55466e+00  5.77641e-01 -6.34161e-01
       H -1.18616e-01 -5.82662e-01  9.81650e-01
       L -1.83533e-01  3.40848e-01 -1.37446e+00
       L  2.22271e+00  2.00697e-01  1.18613e+00
6
# CELL(abcABC):  459.05226   459.05226   459.05226    90.00000    90.00000    90.00000  Step:          40  Bead:       0 x_centroid{angstrom}  cell{atomic_unit}
       C -4.66129e-01 -1.23550e-01  4.72961e-02
       O  8.15134e-01  2.60001e-01 -1.70742e-01
       H  1.58699e+00  5.84519e-01 -6.53986e-01
       H -1.37421e-01 -5.71082e-01  9.81679e-01
       L  6.80953e-02  2.26960e-02 -1.59537e+00
       L  2.03641e+00  3.90604e-01  1.27571e+00
6
# CELL(abcABC):  459.05226   459.05226   459.05226    90.00000    90.00000    90.00000  Step:          41  Bead:       0 x_centroid{angstrom}  cell{atomic_unit}
       C -4.63616e-01 -1.22600e-01  4.55764e-02
       O  8.12975e-01  2.58207e-01 -1.68228e-01
       H  1.61421e+00  5.92058e-01 -6.75672e-01
       H -1.60352e-01 -5.61379e-01  9.84048e-01
       L  3.35700e-01 -2.85674e-01 -1.83234e+00
       L  1.82560e+00  5.43520e-01  1.32751e+00
6
# CELL(abcABC):  459.05226   459.05226   459.05226    90.00000    90.00000    90.00000  Step:          42  Bead:       0 x_centroid{angstrom}  cell{atomic_unit}
       C -4.60162e-01 -1.21715e-01  4.36082e-02
       O  8.10982e-01  2.56669e-01 -1.65677e-01
       H  1.63221e+00  5.97699e-01 -6.97472e-01
       H -1.87913e-01 -5.53076e-01  9.88901e-01
       L  6.20476e-01 -5.58536e-01 -2.05210e+00
       L  1.61519e+00  6.92074e-01  1.37450e+00
6
# CELL(abcABC):  459.05226   459.05226   459.05226    90.00000    90.00000    90.00000  Step:          43  Bead:       0 x_centroid{angstrom}  cell{atomic_unit}
       C -4.56389e-01 -1.20581e-01  4.14717e-02
       O  8.09584e-01  2.55212e-01 -1.63287e-01
       H  1.63997e+00  6.00007e-01 -7.16958e-01
       H -2.18447e-01 -5.45749e-01  9.96050e-01
       L  8.95208e-01 -8.16388e-01 -2.29689e+00
       L  1.36649e+00  8.97231e-01  1.36954e+00
6
# CELL(abcABC):  459.05226   459.05226   459.05226    90.00000    90.00000    90.00000  Step:          44  Bead:       0 x_centroid{angstrom}  cell{atomic_unit}
       C -4.52521e-01 -1.19475e-01  3.88628e-02
       O  8.09036e-01  2.54078e-01 -1.60856e-01
       H  1.63623e+00  5.99236e-01 -7.34160e-01
       H -2.52086e-01 -5.40181e-01  1.00585e+00
       L  1.11054e+00 -1.04013e+00 -2.46738e+00
       L  1.12625e+00  1.17411e+00  1.35566e+00
6
# CELL(abcABC):  459.05226   459.05226   459.05226    90.00000    90.00000    90.00000  Step:          45  Bead:       0 x_centroid{angstrom}  cell{atomic_unit}
       C -4.48376e-01 -1.18125e-01  3.58578e-02
       O  8.09159e-01  2.53015e-01 -1.58443e-01
       H  1.62078e+00  5.95137e-01 -7.48951e-01
       H -2.87975e-01 -5.35290e-01  1.01820e+00
       L  1.31395e+00 -1.32123e+00 -2.58329e+00
       L  9.12228e-01  1.43436e+00  1.37464e+00
6
# CELL(abcABC):  459.05226   459.05226   459.05226    90.00000    90.00000    90.00000  Step:          46  Bead:       0 x_centroid{angstrom}  cell{atomic_unit}
       C -4.44079e-01 -1.16680e-01  3.25624e-02
       O  8.10061e-01  2.52220e-01 -1.56058e-01
       H  1.59237e+00  5.87589e-01 -7.60871e-01
       H -3.25018e-01 -5.32347e-01  1.03157e+00
       L  1.44799e+00 -1.55620e+00 -2.67929e+00
       L  6.40219e-01  1.68591e+00  1.40872e+00
6
# CELL(abcABC):  459.05226   459.05226   459.05226    90.00000    90.00000    90.00000  Step:          47  Bead:       0 x_centroid{angstrom}  cell{atomic_unit}
       C -4.39267e-01 -1.14862e-01  2.86749e-02
       O  8.11355e-01  2.51282e-01 -1.53530e-01
       H  1.55213e+00  5.78055e-01 -7.70742e-01
       H -3.62587e-01 -5.29597e-01  1.04771e+00
       L  1.57125e+00 -1.77890e+00 -2.78472e+00
       L  3.70929e-01  1.91787e+00  1.39268e+00
6
# CELL(abcABC):  459.05226   459.05226   459.05226    90.00000    90.00000    90.00000  Step:          48  Bead:       0 x_centroid{angstrom}  cell{atomic_unit}
       C -4.34434e-01 -1.12823e-01  2.44244e-02
       O  8.13225e-01  2.50351e-01 -1.50848e-01
       H  1.50401e+00  5.66163e-01 -7.78995e-01
       H -4.01656e-01 -5.27195e-01  1.06402e+00
       L  1.69478e+00 -2.02208e+00 -2.86009e+00
       L  1.17981e-01  2.11981e+00  1.47380e+00
6
# CELL(abcABC):  459.05226   459.05226   459.05226    90.00000    90.00000    90.00000  Step:          49  Bead:       0 x_centroid{angstrom}  cell{atomic_unit}
       C -4.29266e-01 -1.10953e-01  2.00596e-02
       O  8.15340e-01  2.49534e-01 -1.47962e-01
       H  1.44936e+00  5.53334e-01 -7.86690e-01
       H -4.42117e-01 -5.23663e-01  1.07795e+00
       L  1.81246e+00 -2.28724e+00 -2.98981e+00
       L -8.71386e-02  2.33048e+00  1.55955e+00
6
# CELL(abcABC):  459.05226   459.05226   459.05226    90.00000    90.00000    90.00000  Step:          50  Bead:       0 x_centroid{angstrom}  cell{atomic_unit}
       C -4.23842e-01 -1.08998e-01  1.58102e-02
       O  8.17556e-01  2.48518e-01 -1.44852e-01
       H  1.38983e+00  5.40324e-01 -7.97062e-01
       H -4.82303e-01 -5.17807e-01  1.08958e+00
       L  1.86232e+00 -2.50071e+00 -3.08739e+00
       L -3.07769e-01  2.51788e+00  1.66945e+00
6
# CELL(abcABC):  459.05226   459.05226   459.05226    90.00000    90.00000    90.00000  Step:          51  Bead:       0 x_centroid{angstrom}  cell{atomic_unit}
       C -4.18403e-01 -1.07061e-01  1.13889e-02
       O  8.19719e-01  2.47305e-01 -1.40961e-01
       H  1.32842e+00  5.29413e-01 -8.14486e-01
       H -5.19939e-01 -5.10699e-01  1.09794e+00
       L  1.91752e+00 -2.71137e+00 -3.17718e+00
       L -5.62166e-01  2.69835e+00  1.73991e+00
6
# CELL(abcABC):  459.05226   459.05226   459.05226    90.00000    90.00000    90.00000  Step:          52  Bead:       0 x_centroid{angstrom}  cell{atomic_unit}
       C -4.13265e-01 -1.05224e-01  6.75483e-03
       O  8.21839e-01  2.45818e-01 -1.35981e-01
       H  1.26945e+00  5.21635e-01 -8.43026e-01
       H -5.55692e-01 -5.01187e-01  1.10267e+00
       L  1.96451e+00 -2.89541e+00 -3.29005e+00
       L -8.70728e-01  2.83097e+00  1.81798e+00
6
# CELL(abcABC):  459.05226   459.05226   459.05226    90.00000    90.00000    90.00000  Step:          53  Bead:       0 x_centroid{angstrom}  cell{atomic_unit}
       C -4.08482e-01 -1.03449e-01  2.09166e-03
       O  8.23967e-01  2.43930e-01 -1.29900e-01
       H  1.21224e+00  5.19219e-01 -8.83163e-01
       H -5.89101e-01 -4.89909e-01  1.10186e+00
       L  1.99190e+00 -3.06314e+00 -3.40054e+00
       L -1.17595e+00  2.92975e+00  1.89630e+00
6
# CELL(abcABC):  459.05226   459.05226   459.05226    90.00000    90.00000    90.00000  Step:          54  Bead:       0 x_centroid{angstrom}  cell{atomic_unit}
       C -4.03742e-01 -1.02087e-01 -2.48920e-03
       O  8.25857e-01  2.42005e-01 -1.22958e-01
       H  1.15553e+00  5.18604e-01 -9.32294e-01
       H -6.18734e-01 -4.74950e-01  1.09544e+00
       L  2.00120e+00 -3.19383e+00 -3.55462e+00
       L -1.45113e+00  3.02096e+00  1.94627e+00
6
# CELL(abcABC):  459.05226   459.05226   459.05226    90.00000    90.00000    90.00000  Step:          55  Bead:       0 x_centroid{angstrom}  cell{atomic_unit}
       C -3.99247e-01 -1.00808e-01 -7.07831e-03
       O  8.27774e-01  2.39885e-01 -1.15413e-01
       H  1.09822e+00  5.19534e-01 -9.85833e-01
       H -6.45344e-01 -4.57464e-01  1.08395e+00
       L  2.04236e+00 -3.29575e+00 -3.66978e+00
       L -1.64071e+00  3.10525e+00  1.97623e+00
6
# CELL(abcABC):  459.05226   459.05226   459.05226    90.00000    90.00000    90.00000  Step:          56  Bead:       0 x_centroid{angstrom}  cell{atomic_unit}
       C -3.95215e-01 -9.96490e-02 -1.16270e-02
       O  8.29884e-01  2.37762e-01 -1.07684e-01
       H  1.04083e+00  5.20269e-01 -1.03887e+00
       H -6.69402e-01 -4.38310e-01  1.06854e+00
       L  2.09474e+00 -3.35184e+00 -3.73326e+00
       L -1.84077e+00  3.17067e+00  1.96541e+00
6
# CELL(abcABC):  459.05226   459.05226   459.05226    90.00000    90.00000    90.00000  Step:          57  Bead:       0 x_centroid{angstrom}  cell{atomic_unit}
       C -3.91774e-01 -9.86575e-02 -1.61450e-02
       O  8.32178e-01  2.35745e-01 -1.00101e-01
       H  9.83002e-01  5.19261e-01 -1.08772e+00
       H -6.88910e-01 -4.17119e-01  1.05094e+00
       L  2.13172e+00 -3.37415e+00 -3.83077e+00
       L -2.03494e+00  3.22141e+00  1.93241e+00
6
# CELL(abcABC):  459.05226   459.05226   459.05226    90.00000    90.00000    90.00000  Step:          58  Bead:       0 x_centroid{angstrom}  cell{atomic_unit}
       C -3.89164e-01 -9.75288e-02 -2.04341e-02
       O  8.34847e-01  2.33676e-01 -9.31230e-02
       H  9.23546e-01  5.16378e-01 -1.12870e+00
       H -7.02811e-01 -3.94866e-01  1.03228e+00
       L  2.15633e+00 -3.33478e+00 -3.85788e+00
       L -2.25596e+00  3.22783e+00  1.90755e+00
6
# CELL(abcABC):  459.05226   459.05226   459.05226    90.00000    90.00000    90.00000  Step:          59  Bead:       0 x_centroid{angstrom}  cell{atomic_unit}
       C -3.87173e-01 -9.61752e-02 -2.49167e-02
       O  8.37653e-01  2.31629e-01 -8.66564e-02
       H  8.65360e-01  5.10082e-01 -1.15800e+00
       H -7.12762e-01 -3.72254e-01  1.01239e+00
       L  2.19783e+00 -3.26115e+00 -3.85338e+00
       L -2.55071e+00  3.24505e+00  1.83313e+00
6
# CELL(abcABC):  459.05226   459.05226   459.05226    90.00000    90.00000    90.00000  Step:          60  Bead:       0 x_centroid{angstrom}  cell{atomic_unit}
       C -3.85690e-01 -9.48012e-02 -2.93626e-02
       O  8.40432e-01  2.29845e-01 -8.09760e-02
       H  8.10073e-01  5.01321e-01 -1.17348e+00
       H -7.19075e-01 -3.51556e-01  9.90682e-01
       L  2.23395e+00 -3.22321e+00 -3.81157e+00
       L -2.89308e+00  3.22309e+00  1.79633e+00
6
# CELL(abcABC):  459.05226   459.05226   459.05226    90.00000    90.00000    90.00000  Step:          61  Bead:       0 x_centroid{angstrom}  cell{atomic_unit}
       C -3.85100e-01 -9.31021e-02 -3.36217e-02
       O  8.43501e-01  2.28077e-01 -7.63150e-02
       H  7.58674e-01  4.88975e-01 -1.17617e+00
       H -7.23221e-01 -3.31409e-01  9.70112e-01
       L  2.20441e+00 -3.12600e+00 -3.73313e+00
       L -3.24240e+00  3.14872e+00  1.75978e+00
6
# CELL(abcABC):  459.05226   459.05226   459.05226    90.00000    90.00000    90.00000  Step:          62  Bead:       0 x_centroid{angstrom}  cell{atomic_unit}
       C -3.85282e-01 -9.13321e-02 -3.78978e-02
       O  8.46656e-01  2.26557e-01 -7.25033e-02
       H  7.12798e-01  4.72900e-01 -1.16668e+00
       H -7.25067e-01 -3.12315e-01  9.50987e-01
       L  2.22642e+00 -3.00783e+00 -3.58016e+00
       L -3.61933e+00  3.06514e+00  1.75736e+00
6
# CELL(abcABC):  459.05226   459.05226   459.05226    90.00000    90.00000    90.00000  Step:          63  Bead:       0 x_centroid{angstrom}  cell{atomic_unit}
       C -3.86071e-01 -8.96083e-02 -4.17868e-02
       O  8.49788e-01  2.25311e-01 -6.98798e-02
       H  6.73360e-01  4.55113e-01 -1.14599e+00
       H -7.25766e-01 -2.95273e-01  9.34947e-01
       L  2.19685e+00 -2.86075e+00 -3.47219e+00
       L -3.92112e+00  2.90339e+00  1.73831e+00
6
# CELL(abcABC):  459.05226   459.05226   459.05226    90.00000    90.00000    90.00000  Step:          64  Bead:       0 x_centroid{angstrom}  cell{atomic_unit}
       C -3.87249e-01 -8.82016e-02 -4.58973e-02
       O  8.52674e-01  2.24360e-01 -6.81104e-02
       H  6.41967e-01  4.37806e-01 -1.11441e+00
       H -7.25992e-01 -2.79646e-01  9.24215e-01
       L  2.14690e+00 -2.65190e+00 -3.34437e+00
       L -4.15577e+00  2.69943e+00  1.69865e+00
6
# CELL(abcABC):  459.05226   459.05226   459.05226    90.00000    90.00000    90.00000  Step:          65  Bead:       0 x_centroid{angstrom}  cell{atomic_unit}
       C -3.89198e-01 -8.66604e-02 -5.01097e-02
       O  8.55627e-01  2.23468e-01 -6.72376e-02
       H  6.19133e-01  4.19581e-01 -1.07261e+00
       H -7.26624e-01 -2.65610e-01  9.18730e-01
       L  2.08597e+00 -2.40636e+00 -3.24425e+00
       L -4.41345e+00  2.43893e+00  1.64964e+00
6
# CELL(abcABC):  459.05226   459.05226   459.05226    90.00000    90.00000    90.00000  Step:          66  Bead:       0 x_centroid{angstrom}  cell{atomic_unit}
       C -3.91515e-01 -8.52374e-02 -5.46022e-02