6
# CELL(abcABC):  459.05226   459.05226   459.05226    90.00000    90.00000    90.00000  Step:           0  Bead:       0 x_centroid{angstrom}  cell{atomic_unit}
       C -3.39887e-01 -1.13437e-01  8.06659e-02
       O  8.43483e-01  2.62672e-01 -1.81512e-01
       H -7.35799e-02  8.16467e-01 -6.61432e-01
       H -4.30016e-01 -9.65701e-01  7.62278e-01
       L  0.00000e+00  0.00000e+00  0.00000e+00
       L  0.00000e+00  0.00000e+00  0.00000e+00
6
# CELL(abcABC):  459.05226   459.05226   459.05226    90.00000    90.00000    90.00000  Step:           1  Bead:       0 x_centroid{angstrom}  cell{atomic_unit}
       C -3.36657e-01 -1.13549e-01  8.37782e-02
       O  8.40840e-01  2.62296e-01 -1.85438e-01
       H -6.05350e-02  8.24161e-01 -6.55749e-01
       H -4.39266e-01 -9.66141e-01  7.81708e-01
       L -4.22902e-01 -1.98871e-02  2.52930e-02
       L -1.76108e-01  8.51922e-02  1.74197e-01
6
# CELL(abcABC):  459.05226   459.05226   459.05226    90.00000    90.00000    90.00000  Step:           2  Bead:       0 x_centroid{angstrom}  cell{atomic_unit}
       C -3.33596e-01 -1.13457e-01  8.69385e-02
       O  8.38259e-01  2.61664e-01 -1.89287e-01
       H -4.79034e-02  8.31862e-01 -6.50392e-01
       H -4.47020e-01 -9.64936e-01  7.99690e-01
       L -8.89674e-01 -1.77742e-02  2.94162e-02
       L -4.07629e-01  1.35874e-01  3.56932e-01
6
# CELL(abcABC):  459.05226   459.05226   459.05226    90.00000    90.00000    90.00000  Step:           3  Bead:       0 x_centroid{angstrom}  cell{atomic_unit}
       C -3.31076e-01 -1.13482e-01  9.02080e-02
       O  8.35843e-01  2.60997e-01 -1.93167e-01
       H -3.29701e-02  8.40903e-01 -6.44417e-01
       H -4.53255e-01 -9.63063e-01  8.16288e-01
       L -1.34378e+00 -9.51090e-02  4.90265e-03
       L -6.49404e-01  1.82113e-01  4.86186e-01
6
# CELL(abcABC):  459.05226   459.05226   459.05226    90.00000    90.00000    90.00000  Step:           4  Bead:       0 x_centroid{angstrom}  cell{atomic_unit}
       C -3.28808e-01 -1.13694e-01  9.38217e-02
       O  8.33422e-01  2.60447e-01 -1.97159e-01
       H -1.55225e-02  8.50178e-01 -6.39778e-01
       H -4.58942e-01 -9.61038e-01  8.31880e-01
       L -1.78244e+00 -2.17960e-01 -2.23087e-02
       L -8.72279e-01  2.08509e-01  6.59085e-01
6
# CELL(abcABC):  459.05226   459.05226   459.05226    90.00000    90.00000    90.00000  Step:           5  Bead:       0 x_centroid{angstrom}  cell{atomic_unit}
       C -3.27092e-01 -1.14258e-01  9.77515e-02
       O  8.31096e-01  2.60025e-01 -2.01256e-01
       H  5.70970e-03  8.59998e-01 -6.35887e-01
       H -4.63367e-01 -9.57358e-01  8.46096e-01
       L -2.19590e+00 -3.66721e-01 -5.79126e-02
       L -1.06843e+00  2.09014e-01  8.68468e-01
6
# CELL(abcABC):  459.05226   459.05226   459.05226    90.00000    90.00000    90.00000  Step:           6  Bead:       0 x_centroid{angstrom}  cell{atomic_unit}
       C -3.26061e-01 -1.15349e-01  1.02318e-01
       O  8.28939e-01  2.59948e-01 -2.05715e-01
       H  3.02538e-02  8.69104e-01 -6.32902e-01
       H -4.65634e-01 -9.52140e-01  8.59394e-01
       L -2.61094e+00 -4.84782e-01 -1.00392e-01
       L -1.24556e+00  1.50959e-01  1.07682e+00
6
# CELL(abcABC):  459.05226   459.05226   459.05226    90.00000    90.00000    90.00000  Step:           7  Bead:       0 x_centroid{angstrom}  cell{atomic_unit}
       C -3.25808e-01 -1.16466e-01  1.07342e-01
       O  8.26846e-01  2.59788e-01 -2.10344e-01
       H  6.04039e-02  8.79014e-01 -6.31210e-01
       H -4.65269e-01 -9.46126e-01  8.71217e-01
       L -3.01227e+00 -5.61739e-01 -1.73829e-01
       L -1.42233e+00  9.80931e-02  1.29786e+00
6
# CELL(abcABC):  459.05226   459.05226   459.05226    90.00000    90.00000    90.00000  Step:           8  Bead:       0 x_centroid{angstrom}  cell{atomic_unit}
       C -3.26811e-01 -1.17912e-01  1.12824e-01
       O  8.25048e-01  2.59798e-01 -2.15211e-01
       H  9.75034e-02  8.88942e-01 -6.30372e-01
       H -4.61601e-01 -9.38944e-01  8.82233e-01
       L -3.36023e+00 -6.68369e-01 -2.38186e-01
       L -1.57088e+00  1.27157e-01  1.52208e+00
6
# CELL(abcABC):  459.05226   459.05226   459.05226    90.00000    90.00000    90.00000  Step:           9  Bead:       0 x_centroid{angstrom}  cell{atomic_unit}
       C -3.28734e-01 -1.20114e-01  1.18526e-01
       O  8.23317e-01  2.60133e-01 -2.19981e-01
       H  1.41333e-01  9.00210e-01 -6.31934e-01
       H -4.54742e-01 -9.29235e-01  8.91428e-01
       L -3.73306e+00 -8.25782e-01 -2.26415e-01
       L -1.75040e+00  1.75711e-01  1.74726e+00
6
# CELL(abcABC):  459.05226   459.05226   459.05226    90.00000    90.00000    90.00000  Step:          10  Bead:       0 x_centroid{angstrom}  cell{atomic_unit}
       C -3.31767e-01 -1.22711e-01  1.24587e-01
       O  8.21657e-01  2.60698e-01 -2.24866e-01
       H  1.93453e-01  9.13164e-01 -6.35760e-01
       H -4.44071e-01 -9.20171e-01  9.00449e-01
       L -4.07879e+00 -9.54717e-01 -2.11449e-01
       L -1.93233e+00  2.32684e-01  1.95178e+00
6
# CELL(abcABC):  459.05226   459.05226   459.05226    90.00000    90.00000    90.00000  Step:          11  Bead:       0 x_centroid{angstrom}  cell{atomic_unit}
       C -3.35687e-01 -1.25994e-01  1.31003e-01
       O  8.20065e-01  2.61639e-01 -2.29786e-01
       H  2.51870e-01  9.29022e-01 -6.42391e-01
       H -4.30270e-01 -9.11810e-01  9.08587e-01
       L -4.36175e+00 -1.05876e+00 -1.82512e-01
       L -2.10493e+00  2.88991e-01  2.19323e+00
6
# CELL(abcABC):  459.05226   459.05226   459.05226    90.00000    90.00000    90.00000  Step:          12  Bead:       0 x_centroid{angstrom}  cell{atomic_unit}
       C -3.40584e-01 -1.29551e-01  1.38085e-01
       O  8.18586e-01  2.62669e-01 -2.34947e-01
       H  3.16513e-01  9.47342e-01 -6.52190e-01
       H -4.12853e-01 -9.04046e-01  9.15769e-01
       L -4.62771e+00 -1.16721e+00 -1.47252e-01
       L -2.24853e+00  2.90925e-01  2.41527e+00
6
# CELL(abcABC):  459.05226   459.05226   459.05226    90.00000    90.00000    90.00000  Step:          13  Bead:       0 x_centroid{angstrom}  cell{atomic_unit}
       C -3.46182e-01 -1.33327e-01  1.45230e-01
       O  8.17060e-01  2.63688e-01 -2.39907e-01
       H  3.85811e-01  9.68930e-01 -6.65749e-01
       H -3.91042e-01 -8.96791e-01  9.22814e-01
       L -4.87952e+00 -1.19920e+00 -1.37314e-01
       L -2.33627e+00  2.94560e-01  2.61548e+00
6
# CELL(abcABC):  459.05226   459.05226   459.05226    90.00000    90.00000    90.00000  Step:          14  Bead:       0 x_centroid{angstrom}  cell{atomic_unit}
       C -3.52270e-01 -1.36906e-01  1.52520e-01
       O  8.15537e-01  2.64452e-01 -2.44718e-01
       H  4.57829e-01  9.93890e-01 -6.83611e-01
       H -3.66174e-01 -8.91236e-01  9.30096e-01
       L -5.08461e+00 -1.21150e+00 -1.96784e-01
       L -2.43351e+00  2.90329e-01  2.83273e+00
6
# CELL(abcABC):  459.05226   459.05226   459.05226    90.00000    90.00000    90.00000  Step:          15  Bead:       0 x_centroid{angstrom}  cell{atomic_unit}
       C -3.58836e-01 -1.40424e-01  1.59833e-01
       O  8.13922e-01  2.64921e-01 -2.49349e-01
       H  5.32464e-01  1.02309e+00 -7.05636e-01
       H -3.36813e-01 -8.85950e-01  9.38368e-01
       L -5.23813e+00 -1.23373e+00 -1.78240e-01
       L -2.49784e+00  2.90771e-01  3.01596e+00
6
# CELL(abcABC):  459.05226   459.05226   459.05226    90.00000    90.00000    90.00000  Step:          16  Bead:       0 x_centroid{angstrom}  cell{atomic_unit}
       C -3.65518e-01 -1.43690e-01  1.67019e-01
       O  8.12130e-01  2.65233e-01 -2.53688e-01
       H  6.08837e-01  1.05321e+00 -7.31060e-01
       H -3.04997e-01 -8.82062e-01  9.46981e-01
       L -5.39968e+00 -1.20754e+00 -2.22428e-01
       L -2.55115e+00  2.14671e-01  3.16614e+00
6
# CELL(abcABC):  459.05226   459.05226   459.05226    90.00000    90.00000    90.00000  Step:          17  Bead:       0 x_centroid{angstrom}  cell{atomic_unit}
       C -3.72049e-01 -1.46926e-01  1.74202e-01
       O  8.09958e-01  2.65636e-01 -2.57885e-01
       H  6.85090e-01  1.08388e+00 -7.57598e-01
       H -2.68848e-01 -8.80527e-01  9.54528e-01
       L -5.48044e+00 -1.18926e+00 -2.57096e-01
       L -2.65563e+00  9.70374e-02  3.23992e+00
6
# CELL(abcABC):  459.05226   459.05226   459.05226    90.00000    90.00000    90.00000  Step:          18  Bead:       0 x_centroid{angstrom}  cell{atomic_unit}
       C -3.78729e-01 -1.49727e-01  1.81305e-01
       O  8.07789e-01  2.65965e-01 -2.62129e-01
       H  7.61132e-01  1.11352e+00 -7.83350e-01
       H -2.30840e-01 -8.82006e-01  9.63009e-01
       L -5.44567e+00 -1.09823e+00 -3.10903e-01
       L -2.72691e+00 -8.98713e-03  3.28541e+00
6
# CELL(abcABC):  459.05226   459.05226   459.05226    90.00000    90.00000    90.00000  Step:          19  Bead:       0 x_centroid{angstrom}  cell{atomic_unit}
       C -3.85386e-01 -1.51967e-01  1.88027e-01
       O  8.05659e-01  2.66416e-01 -2.66215e-01
       H  8.35141e-01  1.13685e+00 -8.07106e-01
       H -1.91726e-01 -8.85840e-01  9.71559e-01
       L -5.42508e+00 -9.55277e-01 -3.61332e-01
       L -2.72697e+00 -8.31302e-02  3.27144e+00
6
# CELL(abcABC):  459.05226   459.05226   459.05226    90.00000    90.00000    90.00000  Step:          20  Bead:       0 x_centroid{angstrom}  cell{atomic_unit}
       C -3.92079e-01 -1.53537e-01  1.94805e-01
       O  8.03573e-01  2.66969e-01 -2.70536e-01
       H  9.06517e-01  1.15137e+00 -8.26797e-01
       H -1.50279e-01 -8.90482e-01  9.79147e-01
       L -5.33980e+00 -7.80979e-01 -4.85351e-01
       L -2.72001e+00 -1.52777e-01  3.24325e+00
6
# CELL(abcABC):  459.05226   459.05226   459.05226    90.00000    90.00000    90.00000  Step:          21  Bead:       0 x_centroid{angstrom}  cell{atomic_unit}
       C -3.98264e-01 -1.54839e-01  2.01380e-01
       O  8.01291e-01  2.67799e-01 -2.74948e-01
       H  9.74345e-01  1.15825e+00 -8.40983e-01
       H -1.08306e-01 -8.95118e-01  9.85135e-01
       L -5.17774e+00 -5.56640e-01 -6.30520e-01
       L -2.68032e+00 -2.04624e-01  3.18098e+00
6
# CELL(abcABC):  459.05226   459.05226   459.05226    90.00000    90.00000    90.00000  Step:          22  Bead:       0 x_centroid{angstrom}  cell{atomic_unit}
       C -4.03939e-01 -1.55881e-01  2.07810e-01
       O  7.98914e-01  2.69053e-01 -2.79309e-01
       H  1.03710e+00  1.15503e+00 -8.51382e-01
       H -6.59000e-02 -8.99474e-01  9.88254e-01
       L -4.92731e+00 -3.25453e-01 -8.04766e-01
       L -2.57216e+00 -2.69022e-01  3.13976e+00
6
# CELL(abcABC):  459.05226   459.05226   459.05226    90.00000    90.00000    90.00000  Step:          23  Bead:       0 x_centroid{angstrom}  cell{atomic_unit}
       C -4.08850e-01 -1.56586e-01  2.14179e-01
       O  7.96366e-01  2.70635e-01 -2.83792e-01
       H  1.09488e+00  1.14192e+00 -8.56373e-01
       H -2.49261e-02 -9.03185e-01  9.88670e-01
       L -4.65477e+00 -6.90145e-02 -1.00218e+00
       L -2.46825e+00 -3.03785e-01  3.06651e+00
6
# CELL(abcABC):  459.05226   459.05226   459.05226    90.00000    90.00000    90.00000  Step:          24  Bead:       0 x_centroid{angstrom}  cell{atomic_unit}
       C -4.13263e-01 -1.56695e-01  2.20422e-01
       O  7.94053e-01  2.72376e-01 -2.88347e-01
       H  1.14397e+00  1.11870e+00 -8.56339e-01
       H  1.50323e-02 -9.06440e-01  9.86662e-01
       L -4.32966e+00  1.91555e-01 -1.13039e+00
       L -2.31394e+00 -3.34476e-01  2.96800e+00
6
# CELL(abcABC):  459.05226   459.05226   459.05226    90.00000    90.00000    90.00000  Step:          25  Bead:       0 x_centroid{angstrom}  cell{atomic_unit}
       C -4.17106e-01 -1.56315e-01  2.26498e-01
       O  7.91925e-01  2.74036e-01 -2.92940e-01
       H  1.18561e+00  1.08799e+00 -8.51539e-01
       H  5.26833e-02 -9.06724e-01  9.82509e-01
       L -3.99203e+00  4.12448e-01 -1.24284e+00
       L -2.15993e+00 -3.52492e-01  2.81116e+00
6
# CELL(abcABC):  459.05226   459.05226   459.05226    90.00000    90.00000    90.00000  Step:          26  Bead:       0 x_centroid{angstrom}  cell{atomic_unit}
       C -4.20412e-01 -1.55742e-01  2.32359e-01
       O  7.90126e-01  2.75892e-01 -2.97519e-01
       H  1.21822e+00  1.05006e+00 -8.41910e-01
       H  8.77651e-02 -9.05176e-01  9.75861e-01
       L -3.66329e+00  6.10781e-01 -1.33042e+00
       L -1.98830e+00 -3.52705e-01  2.67410e+00
6
# CELL(abcABC):  459.05226   459.05226   459.05226    90.00000    90.00000    90.00000  Step:          27  Bead:       0 x_centroid{angstrom}  cell{atomic_unit}
       C -4.22691e-01 -1.55004e-01  2.38051e-01
       O  7.88248e-01  2.77757e-01 -3.01851e-01
       H  1.24232e+00  1.00676e+00 -8.30342e-01
       H  1.20317e-01 -9.00364e-01  9.65389e-01
       L -3.30506e+00  7.43534e-01 -1.45473e+00
       L -1.78305e+00 -3.07302e-01  2.49443e+00
6
# CELL(abcABC):  459.05226   459.05226   459.05226    90.00000    90.00000    90.00000  Step:          28  Bead:       0 x_centroid{angstrom}  cell{atomic_unit}
       C -4.23855e-01 -1.54048e-01  2.43756e-01
       O  7.86351e-01  2.79565e-01 -3.06224e-01
       H  1.25842e+00  9.60000e-01 -8.15540e-01
       H  1.47862e-01 -8.93815e-01  9.52201e-01
       L -2.89937e+00  8.57081e-01 -1.57380e+00
       L -1.55992e+00 -2.27968e-01  2.28682e+00
6
# CELL(abcABC):  459.05226   459.05226   459.05226    90.00000    90.00000    90.00000  Step:          29  Bead:       0 x_centroid{angstrom}  cell{atomic_unit}
       C -4.24320e-01 -1.52884e-01  2.49561e-01
       O  7.84564e-01  2.81131e-01 -3.10502e-01
       H  1.26893e+00  9.13825e-01 -8.01799e-01
       H  1.70919e-01 -8.86472e-01  9.37356e-01
       L -2.48535e+00  1.01271e+00 -1.64534e+00
       L -1.34002e+00 -1.66270e-01  2.03680e+00
6
# CELL(abcABC):  459.05226   459.05226   459.05226    90.00000    90.00000    90.00000  Step:          30  Bead:       0 x_centroid{angstrom}  cell{atomic_unit}
       C -4.23750e-01 -1.51523e-01  2.55475e-01
       O  7.82590e-01  2.82194e-01 -3.14663e-01
       H  1.27624e+00  8.71233e-01 -7.89594e-01
       H  1.87791e-01 -8.77060e-01  9.20940e-01
       L -2.08413e+00  1.12996e+00 -1.76093e+00
       L -1.08546e+00 -1.30097e-01  1.78710e+00
6
# CELL(abcABC):  459.05226   459.05226   459.05226    90.00000    90.00000    90.00000  Step:          31  Bead:       0 x_centroid{angstrom}  cell{atomic_unit}
       C -4.22136e-01 -1.50028e-01  2.61333e-01
       O  7.80152e-01  2.82658e-01 -3.18494e-01
       H  1.28303e+00  8.34935e-01 -7.81501e-01
       H  2.00133e-01 -8.66014e-01  9.04037e-01
       L -1.67810e+00  1.21198e+00 -1.88528e+00
       L -8.80497e-01 -8.55624e-02  1.56602e+00
6
# CELL(abcABC):  459.05226   459.05226   459.05226    90.00000    90.00000    90.00000  Step:          32  Bead:       0 x_centroid{angstrom}  cell{atomic_unit}
       C -4.19514e-01 -1.47911e-01  2.67056e-01
       O  7.77184e-01  2.81961e-01 -3.21672e-01
       H  1.29175e+00  8.09706e-01 -7.81317e-01
       H  2.06982e-01 -8.55049e-01  8.86240e-01
       L -1.31407e+00  1.34383e+00 -1.93119e+00
       L -7.07880e-01 -1.50341e-02  1.34204e+00
6
# CELL(abcABC):  459.05226   459.05226   459.05226    90.00000    90.00000    90.00000  Step:          33  Bead:       0 x_centroid{angstrom}  cell{atomic_unit}
       C -4.15868e-01 -1.45792e-01  2.72604e-01
       O  7.73521e-01  2.80421e-01 -3.24288e-01
       H  1.30431e+00  7.97477e-01 -7.88760e-01
       H  2.08822e-01 -8.43721e-01  8.69236e-01
       L -9.64662e-01  1.47289e+00 -1.98468e+00
       L -4.97672e-01  7.49959e-03  1.15428e+00
6
# CELL(abcABC):  459.05226   459.05226   459.05226    90.00000    90.00000    90.00000  Step:          34  Bead:       0 x_centroid{angstrom}  cell{atomic_unit}
       C -4.11521e-01 -1.43583e-01  2.78147e-01
       O  7.69324e-01  2.78298e-01 -3.26439e-01
       H  1.32066e+00  7.95161e-01 -8.05073e-01
       H  2.07004e-01 -8.34107e-01  8.53787e-01
       L -6.22893e-01  1.56096e+00 -2.04555e+00
       L -3.13336e-01  7.69749e-02  9.56059e-01
6
# CELL(abcABC):  459.05226   459.05226   459.05226    90.00000    90.00000    90.00000  Step:          35  Bead:       0 x_centroid{angstrom}  cell{atomic_unit}
       C -4.06288e-01 -1.41049e-01  2.83470e-01
       O  7.64657e-01  2.75629e-01 -3.28310e-01
       H  1.33854e+00  7.98796e-01 -8.26106e-01
       H  2.00501e-01 -8.25644e-01  8.41212e-01
       L -2.33505e-01  1.62071e+00 -2.05397e+00
       L -6.39909e-02  1.37541e-01  7.28037e-01
6
# CELL(abcABC):  459.05226   459.05226   459.05226    90.00000    90.00000    90.00000  Step:          36  Bead:       0 x_centroid{angstrom}  cell{atomic_unit}
       C -4.00797e-01 -1.38385e-01  2.88770e-01
       O  7.60114e-01  2.72736e-01 -3.30162e-01
       H  1.35471e+00  8.07637e-01 -8.50423e-01
       H  1.90685e-01 -8.20357e-01  8.31859e-01
       L  1.46706e-01  1.65610e+00 -2.03984e+00
       L  1.60222e-01  1.81510e-01  5.52454e-01
6
# CELL(abcABC):  459.05226   459.05226   459.05226    90.00000    90.00000    90.00000  Step:          37  Bead:       0 x_centroid{angstrom}  cell{atomic_unit}
       C -3.94642e-01 -1.35528e-01  2.93764e-01
       O  7.55501e-01  2.69806e-01 -3.32123e-01
       H  1.36612e+00  8.18910e-01 -8.74405e-01
       H  1.78841e-01 -8.19161e-01  8.27566e-01
       L  5.76781e-01  1.68353e+00 -2.05002e+00
       L  3.10802e-01  1.76267e-01  3.79681e-01
6
# CELL(abcABC):  459.05226   459.05226   459.05226    90.00000    90.00000    90.00000  Step:          38  Bead:       0 x_centroid{angstrom}  cell{atomic_unit}
       C -3.88090e-01 -1.32142e-01  2.98301e-01
       O  7.51011e-01  2.66928e-01 -3.34055e-01
       H  1.37156e+00  8.28748e-01 -8.97611e-01
       H  1.66265e-01 -8.23691e-01  8.27496e-01
       L  9.71379e-01  1.71206e+00 -2.08381e+00
       L  5.14549e-01  1.72954e-01  1.79499e-01
6
# CELL(abcABC):  459.05226   459.05226   459.05226    90.00000    90.00000    90.00000  Step:          39  Bead:       0 x_centroid{angstrom}  cell{atomic_unit}
       C -3.81270e-01 -1.28306e-01  3.02639e-01
       O  7.46913e-01  2.64164e-01 -3.36313e-01
       H  1.36751e+00  8.36809e-01 -9.18028e-01
       H  1.53750e-01 -8.33623e-01  8.32189e-01
       L  1.41711e+00  1.73913e+00 -2.10726e+00
       L  7.18060e-01  2.33419e-01 -8.65101e-03
6
# CELL(abcABC):  459.05226   459.05226   459.05226    90.00000    90.00000    90.00000  Step:          40  Bead:       0 x_centroid{angstrom}  cell{atomic_unit}
       C -3.74305e-01 -1.23895e-01  3.06510e-01
       O  7.43197e-01  2.61563e-01 -3.38757e-01
       H  1.35505e+00  8.42007e-01 -9.35064e-01
       H  1.41822e-01 -8.50149e-01  8.41976e-01
       L  1.88512e+00  1.75533e+00 -2.10429e+00
       L  9.38635e-01  3.02804e-01 -1.83013e-01
6
# CELL(abcABC):  459.05226   459.05226   459.05226    90.00000    90.00000    90.00000  Step:          41  Bead:       0 x_centroid{angstrom}  cell{atomic_unit}
       C -3.66958e-01 -1.19060e-01  3.09823e-01
       O  7.39783e-01  2.59059e-01 -3.41389e-01
       H  1.33209e+00  8.45235e-01 -9.47714e-01
       H  1.31050e-01 -8.71313e-01  8.56958e-01
       L  2.31589e+00  1.76741e+00 -2.04426e+00
       L  1.18296e+00  4.10644e-01 -2.95897e-01
6
# CELL(abcABC):  459.05226   459.05226   459.05226    90.00000    90.00000    90.00000  Step:          42  Bead:       0 x_centroid{angstrom}  cell{atomic_unit}
       C -3.59486e-01 -1.13886e-01  3.12478e-01
       O  7.36791e-01  2.56659e-01 -3.44008e-01
       H  1.30015e+00  8.45082e-01 -9.55460e-01
       H  1.21132e-01 -8.94785e-01  8.74672e-01
       L  2.70208e+00  1.79067e+00 -1.96588e+00
       L  1.39244e+00  5.00159e-01 -4.30099e-01
6
# CELL(abcABC):  459.05226   459.05226   459.05226    90.00000    90.00000    90.00000  Step:          43  Bead:       0 x_centroid{angstrom}  cell{atomic_unit}
       C -3.51898e-01 -1.08191e-01  3.14861e-01
       O  7.34326e-01  2.54172e-01 -3.46852e-01
       H  1.26010e+00  8.41528e-01 -9.58726e-01
       H  1.09604e-01 -9.19654e-01  8.94700e-01
       L  3.04356e+00  1.80271e+00 -1.88976e+00
       L  1.57705e+00  5.54889e-01 -5.56757e-01
6
# CELL(abcABC):  459.05226   459.05226   459.05226    90.00000    90.00000    90.00000  Step:          44  Bead:       0 x_centroid{angstrom}  cell{atomic_unit}
       C -3.44370e-01 -1.02084e-01  3.16974e-01
       O  7.32513e-01  2.51441e-01 -3.49676e-01
       H  1.21266e+00  8.36824e-01 -9.59367e-01
       H  9.58942e-02 -9.44361e-01  9.15019e-01
       L  3.32017e+00  1.78557e+00 -1.77880e+00
       L  1.72939e+00  5.80688e-01 -6.96234e-01
6
# CELL(abcABC):  459.05226   459.05226   459.05226    90.00000    90.00000    90.00000  Step:          45  Bead:       0 x_centroid{angstrom}  cell{atomic_unit}
       C -3.36841e-01 -9.61660e-02  3.19085e-01
       O  7.31106e-01  2.48749e-01 -3.52617e-01
       H  1.15916e+00  8.32373e-01 -9.58085e-01
       H  8.18255e-02 -9.67685e-01  9.35278e-01
       L  3.52066e+00  1.73260e+00 -1.65005e+00
       L  1.86331e+00  6.09114e-01 -8.68893e-01
6
# CELL(abcABC):  459.05226   459.05226   459.05226    90.00000    90.00000    90.00000  Step:          46  Bead:       0 x_centroid{angstrom}  cell{atomic_unit}
       C -3.29139e-01 -9.03930e-02  3.21181e-01
       O  7.29935e-01  2.45879e-01 -3.55468e-01
       H  1.10039e+00  8.30897e-01 -9.55741e-01
       H  6.72465e-02 -9.89389e-01  9.53279e-01
       L  3.70570e+00  1.60714e+00 -1.53304e+00
       L  1.95928e+00  6.25610e-01 -1.10672e+00
6
# CELL(abcABC):  459.05226   459.05226   459.05226    90.00000    90.00000    90.00000  Step:          47  Bead:       0 x_centroid{angstrom}  cell{atomic_unit}
       C -3.21235e-01 -8.47596e-02  3.23421e-01
       O  7.28933e-01  2.42680e-01 -3.58059e-01
       H  1.03825e+00  8.33679e-01 -9.55967e-01
       H  5.09632e-02 -1.00846e+00  9.68015e-01
       L  3.85210e+00  1.51962e+00 -1.40521e+00
       L  2.06126e+00  6.05453e-01 -1.34516e+00
6
# CELL(abcABC):  459.05226   459.05226   459.05226    90.00000    90.00000    90.00000  Step:          48  Bead:       0 x_centroid{angstrom}  cell{atomic_unit}
       C -3.13140e-01 -7.92340e-02  3.25832e-01
       O  7.28011e-01  2.38867e-01 -3.60078e-01
       H  9.74188e-01  8.44383e-01 -9.63543e-01
       H  3.30912e-02 -1.02445e+00  9.78962e-01
       L  3.95884e+00  1.48886e+00 -1.25905e+00
       L  2.17197e+00  5.77123e-01 -1.59871e+00
6
# CELL(abcABC):  459.05226   459.05226   459.05226    90.00000    90.00000    90.00000  Step:          49  Bead:       0 x_centroid{angstrom}  cell{atomic_unit}
       C -3.05477e-01 -7.35864e-02  3.28395e-01
       O  7.27623e-01  2.34143e-01 -3.61606e-01
       H  9.08458e-01  8.62832e-01 -9.77843e-01
       H  1.35883e-02 -1.03514e+00  9.87021e-01
       L  4.07090e+00  1.42323e+00 -1.10802e+00
       L  2.20285e+00  5.21810e-01 -1.81833e+00
6
# CELL(abcABC):  459.05226   459.05226   459.05226    90.00000    90.00000    90.00000  Step:          50  Bead:       0 x_centroid{angstrom}  cell{atomic_unit}
       C -2.97887e-01 -6.81326e-02  3.31196e-01
       O  7.27544e-01  2.28677e-01 -3.62682e-01
       H  8.38403e-01  8.88512e-01 -9.97758e-01
       H -5.58261e-03 -1.03897e+00  9.90651e-01
       L  4.10525e+00  1.34317e+00 -9.53386e-01
       L  2.23937e+00  4.63543e-01 -2.01675e+00
6
# CELL(abcABC):  459.05226   459.05226   459.05226    90.00000    90.00000    90.00000  Step:          51  Bead:       0 x_centroid{angstrom}  cell{atomic_unit}
       C -2.90605e-01 -6.24958e-02  3.34117e-01
       O  7.27909e-01  2.22473e-01 -3.63499e-01
       H  7.64946e-01  9.18245e-01 -1.01883e+00
       H -2.46825e-02 -1.03733e+00  9.89894e-01
       L  4.05786e+00  1.25550e+00 -7.92945e-01
       L  2.25710e+00  4.12107e-01 -2.17877e+00
6
# CELL(abcABC):  459.05226   459.05226   459.05226    90.00000    90.00000    90.00000  Step:          52  Bead:       0 x_centroid{angstrom}  cell{atomic_unit}
       C -2.83822e-01 -5.68821e-02  3.37182e-01
       O  7.28750e-01  2.15950e-01 -3.64386e-01
       H  6.88929e-01  9.47069e-01 -1.03718e+00
       H -4.27829e-02 -1.02947e+00  9.85815e-01
       L  3.98926e+00  1.18502e+00 -6.74389e-01
       L  2.23407e+00  4.17847e-01 -2.34265e+00
6
# CELL(abcABC):  459.05226   459.05226   459.05226    90.00000    90.00000    90.00000  Step:          53  Bead:       0 x_centroid{angstrom}  cell{atomic_unit}
       C -2.77371e-01 -5.14403e-02  3.40309e-01
       O  7.29859e-01  2.09415e-01 -3.65377e-01
       H  6.11279e-01  9.72793e-01 -1.05106e+00
       H -5.95039e-02 -1.01620e+00  9.78174e-01
       L  3.83835e+00  1.07007e+00 -5.21001e-01
       L  2.17479e+00  3.65173e-01 -2.50437e+00
6
# CELL(abcABC):  459.05226   459.05226   459.05226    90.00000    90.00000    90.00000  Step:          54  Bead:       0 x_centroid{angstrom}  cell{atomic_unit}
       C -2.71666e-01 -4.63772e-02  3.43581e-01
       O  7.31469e-01  2.03272e-01 -3.66789e-01
       H  5.33853e-01  9.92689e-01 -1.05706e+00
       H -7.54382e-02 -9.98800e-01  9.67549e-01
       L  3.63415e+00  9.14339e-01 -3.71295e-01
       L  2.05881e+00  3.02455e-01 -2.59294e+00
6
# CELL(abcABC):  459.05226   459.05226   459.05226    90.00000    90.00000    90.00000  Step:          55  Bead:       0 x_centroid{angstrom}  cell{atomic_unit}
       C -2.66340e-01 -4.15540e-02  3.47111e-01
       O  7.33108e-01  1.97581e-01 -3.68714e-01
       H  4.59565e-01  1.00409e+00 -1.05525e+00
       H -9.04899e-02 -9.77217e-01  9.54182e-01
       L  3.43867e+00  7.75141e-01 -2.25283e-01
       L  1.98789e+00  2.09583e-01 -2.61307e+00
6
# CELL(abcABC):  459.05226   459.05226   459.05226    90.00000    90.00000    90.00000  Step:          56  Bead:       0 x_centroid{angstrom}  cell{atomic_unit}
       C -2.61835e-01 -3.69361e-02  3.50789e-01
       O  7.35031e-01  1.92485e-01 -3.71192e-01
       H  3.89565e-01  1.00629e+00 -1.04501e+00
       H -1.04533e-01 -9.53461e-01  9.39357e-01
       L  3.22806e+00  6.67238e-01 -6.87370e-02
       L  1.91258e+00  1.36794e-01 -2.61877e+00
6
# CELL(abcABC):  459.05226   459.05226   459.05226    90.00000    90.00000    90.00000  Step:          57  Bead:       0 x_centroid{angstrom}  cell{atomic_unit}
       C -2.58000e-01 -3.20688e-02  3.54753e-01
       O  7.36903e-01  1.87853e-01 -3.74476e-01
       H  3.25040e-01  9.98543e-01 -1.02584e+00
       H -1.15232e-01 -9.30090e-01  9.25000e-01
       L  2.95634e+00  5.49856e-01  6.78566e-02
       L  1.82282e+00  8.89652e-02 -2.60020e+00
6
# CELL(abcABC):  459.05226   459.05226   459.05226    90.00000    90.00000    90.00000  Step:          58  Bead:       0 x_centroid{angstrom}  cell{atomic_unit}
       C -2.54949e-01 -2.73033e-02  3.58886e-01
       O  7.38721e-01  1.84026e-01 -3.78536e-01
       H  2.68519e-01  9.80989e-01 -9.98746e-01
       H -1.23642e-01 -9.08480e-01  9.12981e-01
       L  2.60642e+00  4.63371e-01  2.17852e-01
       L  1.67407e+00 -2.84624e-03 -2.51845e+00
6
# CELL(abcABC):  459.05226   459.05226   459.05226    90.00000    90.00000    90.00000  Step:          59  Bead:       0 x_centroid{angstrom}  cell{atomic_unit}
       C -2.52389e-01 -2.24957e-02  3.63311e-01
       O  7.40205e-01  1.80897e-01 -3.83250e-01
       H  2.20470e-01  9.54742e-01 -9.66929e-01
       H -1.29385e-01 -8.89777e-01  9.03124e-01
       L  2.26624e+00  3.87881e-01  3.74517e-01
       L  1.50086e+00 -6.10297e-02 -2.43433e+00
6
# CELL(abcABC):  459.05226   459.05226   459.05226    90.00000    90.00000    90.00000  Step:          60  Bead:       0 x_centroid{angstrom}  cell{atomic_unit}
       C -2.50377e-01 -1.75166e-02  3.68473e-01
       O  7.41299e-01  1.78383e-01 -3.89011e-01
       H  1.81087e-01  9.21934e-01 -9.30599e-01
       H -1.31063e-01 -8.76326e-01  8.96601e-01
       L  1.90793e+00  3.17484e-01  5.16942e-01
       L  1.35870e+00 -1.16508e-01 -2.34380e+00
6
# CELL(abcABC):  459.05226   459.05226   459.05226    90.00000    90.00000    90.00000  Step:          61  Bead:       0 x_centroid{angstrom}  cell{atomic_unit}
       C -2.49180e-01 -1.24606e-02  3.73796e-01
       O  7.42159e-01  1.76538e-01 -3.95475e-01
       H  1.51475e-01  8.84232e-01 -8.91375e-01
       H -1.29079e-01 -8.69524e-01  8.96419e-01
       L  1.51608e+00  2.49139e-01  6.47715e-01
       L  1.21411e+00 -1.71892e-01 -2.23058e+00
6
# CELL(abcABC):  459.05226   459.05226   459.05226    90.00000    90.00000    90.00000  Step:          62  Bead:       0 x_centroid{angstrom}  cell{atomic_unit}
       C -2.48478e-01 -7.05266e-03  3.79245e-01
       O  7.42586e-01  1.75111e-01 -4.02428e-01
       H  1.32165e-01  8.43762e-01 -8.51588e-01
       H -1.24567e-01 -8.70729e-01  9.01925e-01
       L  1.05930e+00  1.28786e-01  7.63990e-01
       L  1.05075e+00 -2.57076e-01 -2.07149e+00
6
# CELL(abcABC):  459.05226   459.05226   459.05226    90.00000    90.00000    90.00000  Step:          63  Bead:       0 x_centroid{angstrom}  cell{atomic_unit}
       C -2.48015e-01 -1.60110e-03  3.84704e-01
       O  7.42468e-01  1.74195e-01 -4.09616e-01
       H  1.21886e-01  8.01990e-01 -8.13778e-01
       H -1.17577e-01 -8.79251e-01  9.13030e-01
       L  5.91406e-01  1.30251e-02  8.51721e-01
       L  8.79417e-01 -3.72369e-01 -1.90697e+00
6
# CELL(abcABC):  459.05226   459.05226   459.05226    90.00000    90.00000    90.00000  Step:          64  Bead:       0 x_centroid{angstrom}  cell{atomic_unit}
       C -2.48054e-01  3.99861e-03  3.90409e-01
       O  7.42203e-01  1.73450e-01 -4.16885e-01
       H  1.18681e-01  7.61837e-01 -7.81171e-01
       H -1.09331e-01 -8.93860e-01  9.27691e-01
       L  9.03476e-02 -1.47251e-01  9.71027e-01
       L  6.85955e-01 -4.80577e-01 -1.77327e+00
6
# CELL(abcABC):  459.05226   459.05226   459.05226    90.00000    90.00000    90.00000  Step:          65  Bead:       0 x_centroid{angstrom}  cell{atomic_unit}
       C -2.48573e-01  9.08260e-03  3.96393e-01
       O  7.41940e-01  1.72965e-01 -4.24024e-01
       H  1.19557e-01  7.27104e-01 -7.56792e-01
       H -9.94276e-02 -9.11788e-01  9.45193e-01
       L -3.93366e-01 -3.70128e-01  1.07420e+00
       L  4.12323e-01 -6.61631e-01 -1.65083e+00
6
# CELL(abcABC):  459.05226   459.05226   459.05226    90.00000    90.00000    90.00000  Step:          66  Bead:       0 x_centroid{angstrom}  cell{atomic_unit}
       C -2.49135e-01  1.38650e-02  4.02855e-01