6
# CELL(abcABC):  459.05226   459.05226   459.05226    90.00000    90.00000    90.00000  Step:           0  Bead:       0 x_centroid{angstrom}  cell{atomic_unit}
       C -3.39887e-01 -1.13437e-01  8.06659e-02
       O  8.43483e-01  2.62672e-01 -1.81512e-01
       H -7.35799e-02  8.16467e-01 -6.61432e-01
       H -4.30016e-01 -9.65701e-01  7.62278e-01
       L  0.00000e+00  0.00000e+00  0.00000e+00
       L  0.00000e+00  0.00000e+00  0.00000e+00
6
# CELL(abcABC):  459.05226   459.05226   459.05226    90.00000    90.00000    90.00000  Step:           1  Bead:       0 x_centroid{angstrom}  cell{atomic_unit}
       C -3.42300e-01 -1.10396e-01  8.15353e-02
       O  8.44588e-01  2.60657e-01 -1.82355e-01
       H -6.54436e-02  8.18113e-01 -6.49338e-01
       H -4.27163e-01 -9.71811e-01  7.53528e-01
       L  1.76544e-01  5.67885e-01 -2.89995e-01
       L  2.38043e-01 -1.87959e-01 -3.00021e-01
6
# CELL(abcABC):  459.05226   459.05226   459.05226    90.00000    90.00000    90.00000  Step:           2  Bead:       0 x_centroid{angstrom}  cell{atomic_unit}
       C -3.44703e-01 -1.07483e-01  8.25038e-02
       O  8.45613e-01  2.58694e-01 -1.83198e-01
       H -5.50641e-02  8.19348e-01 -6.38873e-01
       H -4.25442e-01 -9.76822e-01  7.45185e-01
       L  3.97523e-01  1.14361e+00 -6.17011e-01
       L  4.95523e-01 -3.63527e-01 -5.16368e-01
6
# CELL(abcABC):  459.05226   459.05226   459.05226    90.00000    90.00000    90.00000  Step:           3  Bead:       0 x_centroid{angstrom}  cell{atomic_unit}
       C -3.46919e-01 -1.04867e-01  8.38105e-02
       O  8.46370e-01  2.56798e-01 -1.84264e-01
       H -4.32895e-02  8.23350e-01 -6.29634e-01
       H -4.23091e-01 -9.82165e-01  7.37633e-01
       L  6.21240e-01  1.80001e+00 -9.88594e-01
       L  7.78974e-01 -5.22872e-01 -7.66092e-01
6
# CELL(abcABC):  459.05226   459.05226   459.05226    90.00000    90.00000    90.00000  Step:           4  Bead:       0 x_centroid{angstrom}  cell{atomic_unit}
       C -3.49033e-01 -1.02523e-01  8.51656e-02
       O  8.46906e-01  2.55033e-01 -1.85437e-01
       H -3.01106e-02  8.28535e-01 -6.20734e-01
       H -4.19848e-01 -9.87569e-01  7.31502e-01
       L  8.20499e-01  2.50947e+00 -1.32578e+00
       L  1.05295e+00 -6.94680e-01 -9.57634e-01
6
# CELL(abcABC):  459.05226   459.05226   459.05226    90.00000    90.00000    90.00000  Step:           5  Bead:       0 x_centroid{angstrom}  cell{atomic_unit}
       C -3.51205e-01 -1.00521e-01  8.69991e-02
       O  8.47328e-01  2.53514e-01 -1.86756e-01
       H -1.44541e-02  8.34228e-01 -6.13288e-01
       H -4.16599e-01 -9.93284e-01  7.23362e-01
       L  1.02390e+00  3.20859e+00 -1.59287e+00
       L  1.35212e+00 -8.63769e-01 -1.10650e+00
6
# CELL(abcABC):  459.05226   459.05226   459.05226    90.00000    90.00000    90.00000  Step:           6  Bead:       0 x_centroid{angstrom}  cell{atomic_unit}
       C -3.53492e-01 -9.86132e-02  8.88506e-02
       O  8.47597e-01  2.51932e-01 -1.88109e-01
       H  5.07910e-03  8.42270e-01 -6.05512e-01
       H -4.13379e-01 -9.99168e-01  7.15209e-01
       L  1.23862e+00  3.87091e+00 -1.84094e+00
       L  1.56440e+00 -1.11887e+00 -1.23378e+00
6
# CELL(abcABC):  459.05226   459.05226   459.05226    90.00000    90.00000    90.00000  Step:           7  Bead:       0 x_centroid{angstrom}  cell{atomic_unit}
       C -3.55915e-01 -9.69965e-02  9.06359e-02
       O  8.47790e-01  2.50391e-01 -1.89274e-01
       H  2.81536e-02  8.52845e-01 -5.99459e-01
       H -4.10890e-01 -1.00475e+00  7.06548e-01
       L  1.52077e+00  4.51127e+00 -2.08522e+00
       L  1.72684e+00 -1.38045e+00 -1.30621e+00
6
# CELL(abcABC):  459.05226   459.05226   459.05226    90.00000    90.00000    90.00000  Step:           8  Bead:       0 x_centroid{angstrom}  cell{atomic_unit}
       C -3.58386e-01 -9.60323e-02  9.24609e-02
       O  8.47756e-01  2.49170e-01 -1.90414e-01
       H  5.51066e-02  8.65852e-01 -5.94431e-01
       H -4.08071e-01 -1.01010e+00  6.97991e-01
       L  1.79978e+00  5.10999e+00 -2.27393e+00
       L  1.83798e+00 -1.57901e+00 -1.33344e+00
6
# CELL(abcABC):  459.05226   459.05226   459.05226    90.00000    90.00000    90.00000  Step:           9  Bead:       0 x_centroid{angstrom}  cell{atomic_unit}
       C -3.60814e-01 -9.54328e-02  9.43765e-02
       O  8.47296e-01  2.48196e-01 -1.91504e-01
       H  8.75735e-02  8.79545e-01 -5.91078e-01
       H -4.04507e-01 -1.01562e+00  6.89210e-01
       L  2.05279e+00  5.61162e+00 -2.44640e+00
       L  1.95765e+00 -1.78659e+00 -1.35653e+00
6
# CELL(abcABC):  459.05226   459.05226   459.05226    90.00000    90.00000    90.00000  Step:          10  Bead:       0 x_centroid{angstrom}  cell{atomic_unit}
       C -3.63537e-01 -9.51004e-02  9.66826e-02
       O  8.46665e-01  2.47210e-01 -1.92829e-01
       H  1.26248e-01  8.96460e-01 -5.90073e-01
       H -4.00884e-01 -1.02101e+00  6.81845e-01
       L  2.27827e+00  6.07804e+00 -2.61157e+00
       L  2.06122e+00 -1.97867e+00 -1.33854e+00
6
# CELL(abcABC):  459.05226   459.05226   459.05226    90.00000    90.00000    90.00000  Step:          11  Bead:       0 x_centroid{angstrom}  cell{atomic_unit}
       C -3.66353e-01 -9.50605e-02  9.93448e-02
       O  8.45620e-01  2.46354e-01 -1.94342e-01
       H  1.72318e-01  9.14921e-01 -5.91230e-01
       H -3.97039e-01 -1.02645e+00  6.75358e-01
       L  2.51513e+00  6.42362e+00 -2.75423e+00
       L  2.22549e+00 -2.13846e+00 -1.30093e+00
6
# CELL(abcABC):  459.05226   459.05226   459.05226    90.00000    90.00000    90.00000  Step:          12  Bead:       0 x_centroid{angstrom}  cell{atomic_unit}
       C -3.69345e-01 -9.53510e-02  1.02126e-01
       O  8.44097e-01  2.45706e-01 -1.95845e-01
       H  2.27533e-01  9.35550e-01 -5.94593e-01
       H -3.92617e-01 -1.03343e+00  6.69505e-01
       L  2.73152e+00  6.69027e+00 -2.88023e+00
       L  2.35512e+00 -2.23305e+00 -1.29574e+00
6
# CELL(abcABC):  459.05226   459.05226   459.05226    90.00000    90.00000    90.00000  Step:          13  Bead:       0 x_centroid{angstrom}  cell{atomic_unit}
       C -3.72548e-01 -9.58447e-02  1.05328e-01
       O  8.42122e-01  2.45043e-01 -1.97597e-01
       H  2.92715e-01  9.58942e-01 -6.00013e-01
       H -3.88432e-01 -1.04047e+00  6.64584e-01
       L  2.88123e+00  6.85992e+00 -2.92433e+00
       L  2.46375e+00 -2.29041e+00 -1.27131e+00
6
# CELL(abcABC):  459.05226   459.05226   459.05226    90.00000    90.00000    90.00000  Step:          14  Bead:       0 x_centroid{angstrom}  cell{atomic_unit}
       C -3.76059e-01 -9.68847e-02  1.08816e-01
       O  8.39777e-01  2.44622e-01 -1.99481e-01
       H  3.66319e-01  9.84208e-01 -6.07385e-01
       H -3.83073e-01 -1.04673e+00  6.60309e-01
       L  3.01752e+00  6.98395e+00 -2.98381e+00
       L  2.51703e+00 -2.29107e+00 -1.25250e+00
6
# CELL(abcABC):  459.05226   459.05226   459.05226    90.00000    90.00000    90.00000  Step:          15  Bead:       0 x_centroid{angstrom}  cell{atomic_unit}
       C -3.80065e-01 -9.82125e-02  1.12478e-01
       O  8.37315e-01  2.44245e-01 -2.01397e-01
       H  4.47263e-01  1.01170e+00 -6.16322e-01
       H -3.77277e-01 -1.05240e+00  6.56066e-01
       L  3.11375e+00  7.00075e+00 -3.06891e+00
       L  2.56131e+00 -2.32617e+00 -1.22142e+00
6
# CELL(abcABC):  459.05226   459.05226   459.05226    90.00000    90.00000    90.00000  Step:          16  Bead:       0 x_centroid{angstrom}  cell{atomic_unit}
       C -3.84207e-01 -9.99988e-02  1.16417e-01
       O  8.34419e-01  2.44028e-01 -2.03460e-01
       H  5.34633e-01  1.04109e+00 -6.26184e-01
       H -3.69380e-01 -1.05701e+00  6.51722e-01
       L  3.21620e+00  6.90595e+00 -3.08458e+00
       L  2.56645e+00 -2.33114e+00 -1.17827e+00
6
# CELL(abcABC):  459.05226   459.05226   459.05226    90.00000    90.00000    90.00000  Step:          17  Bead:       0 x_centroid{angstrom}  cell{atomic_unit}
       C -3.88770e-01 -1.02145e-01  1.20637e-01
       O  8.31463e-01  2.43965e-01 -2.05531e-01
       H  6.25999e-01  1.07257e+00 -6.38795e-01
       H -3.59433e-01 -1.06183e+00  6.46892e-01
       L  3.24141e+00  6.75900e+00 -3.13590e+00
       L  2.52165e+00 -2.33238e+00 -1.08237e+00
6
# CELL(abcABC):  459.05226   459.05226   459.05226    90.00000    90.00000    90.00000  Step:          18  Bead:       0 x_centroid{angstrom}  cell{atomic_unit}
       C -3.93090e-01 -1.04208e-01  1.24885e-01
       O  8.28024e-01  2.43718e-01 -2.07760e-01
       H  7.20371e-01  1.10534e+00 -6.51073e-01
       H -3.47705e-01 -1.06604e+00  6.43862e-01
       L  3.27236e+00  6.60402e+00 -3.12598e+00
       L  2.42634e+00 -2.28696e+00 -9.52186e-01
6
# CELL(abcABC):  459.05226   459.05226   459.05226    90.00000    90.00000    90.00000  Step:          19  Bead:       0 x_centroid{angstrom}  cell{atomic_unit}
       C -3.97319e-01 -1.05909e-01  1.28827e-01
       O  8.24399e-01  2.43380e-01 -2.09947e-01
       H  8.15901e-01  1.13543e+00 -6.60947e-01
       H -3.35273e-01 -1.07040e+00  6.41368e-01
       L  3.35842e+00  6.35643e+00 -3.13998e+00
       L  2.27647e+00 -2.23841e+00 -7.48748e-01
6
# CELL(abcABC):  459.05226   459.05226   459.05226    90.00000    90.00000    90.00000  Step:          20  Bead:       0 x_centroid{angstrom}  cell{atomic_unit}
       C -4.01721e-01 -1.07475e-01  1.32661e-01
       O  8.20852e-01  2.43378e-01 -2.12266e-01
       H  9.10523e-01  1.15906e+00 -6.66850e-01
       H -3.21071e-01 -1.07522e+00  6.38279e-01
       L  3.39408e+00  6.03772e+00 -3.06652e+00
       L  2.13945e+00 -2.13661e+00 -6.17748e-01
6
# CELL(abcABC):  459.05226   459.05226   459.05226    90.00000    90.00000    90.00000  Step:          21  Bead:       0 x_centroid{angstrom}  cell{atomic_unit}
       C -4.05850e-01 -1.08682e-01  1.36449e-01
       O  8.17159e-01  2.43520e-01 -2.14808e-01
       H  1.00263e+00  1.17560e+00 -6.68634e-01
       H -3.05294e-01 -1.07949e+00  6.35175e-01
       L  3.39586e+00  5.67193e+00 -2.97797e+00
       L  2.00749e+00 -2.01087e+00 -5.12956e-01
6
# CELL(abcABC):  459.05226   459.05226   459.05226    90.00000    90.00000    90.00000  Step:          22  Bead:       0 x_centroid{angstrom}  cell{atomic_unit}
       C -4.09769e-01 -1.09622e-01  1.40041e-01
       O  8.13540e-01  2.43963e-01 -2.17296e-01
       H  1.08914e+00  1.18309e+00 -6.68599e-01
       H -2.87628e-01 -1.08267e+00  6.31712e-01
       L  3.42192e+00  5.23955e+00 -2.89204e+00
       L  1.92216e+00 -1.83328e+00 -3.85764e-01
6
# CELL(abcABC):  459.05226   459.05226   459.05226    90.00000    90.00000    90.00000  Step:          23  Bead:       0 x_centroid{angstrom}  cell{atomic_unit}
       C -4.13601e-01 -1.10161e-01  1.43494e-01
       O  8.10258e-01  2.44753e-01 -2.19839e-01
       H  1.16784e+00  1.18031e+00 -6.64030e-01
       H -2.68496e-01 -1.08585e+00  6.26257e-01
       L  3.40514e+00  4.78507e+00 -2.77437e+00
       L  1.81614e+00 -1.66887e+00 -3.04248e-01
6
# CELL(abcABC):  459.05226   459.05226   459.05226    90.00000    90.00000    90.00000  Step:          24  Bead:       0 x_centroid{angstrom}  cell{atomic_unit}
       C -4.17235e-01 -1.10411e-01  1.47044e-01
       O  8.07281e-01  2.45940e-01 -2.22671e-01
       H  1.23838e+00  1.16800e+00 -6.55274e-01
       H -2.48394e-01 -1.08922e+00  6.20042e-01
       L  3.34120e+00  4.25479e+00 -2.70138e+00
       L  1.70672e+00 -1.47959e+00 -1.83699e-01
6
# CELL(abcABC):  459.05226   459.05226   459.05226    90.00000    90.00000    90.00000  Step:          25  Bead:       0 x_centroid{angstrom}  cell{atomic_unit}
       C -4.20644e-01 -1.10412e-01  1.50464e-01
       O  8.04718e-01  2.47467e-01 -2.25677e-01
       H  1.29912e+00  1.14671e+00 -6.41777e-01
       H -2.27649e-01 -1.09195e+00  6.13410e-01
       L  3.21033e+00  3.66644e+00 -2.56819e+00
       L  1.51059e+00 -1.25764e+00 -1.22854e-01
6
# CELL(abcABC):  459.05226   459.05226   459.05226    90.00000    90.00000    90.00000  Step:          26  Bead:       0 x_centroid{angstrom}  cell{atomic_unit}
       C -4.23864e-01 -1.09650e-01  1.53816e-01
       O  8.02538e-01  2.49013e-01 -2.28828e-01
       H  1.34941e+00  1.11700e+00 -6.24082e-01
       H -2.04713e-01 -1.09567e+00  6.05711e-01
       L  3.03789e+00  3.07634e+00 -2.44656e+00
       L  1.24031e+00 -1.04353e+00 -1.09572e-01
6
# CELL(abcABC):  459.05226   459.05226   459.05226    90.00000    90.00000    90.00000  Step:          27  Bead:       0 x_centroid{angstrom}  cell{atomic_unit}
       C -4.26958e-01 -1.08397e-01  1.57218e-01
       O  8.00885e-01  2.50729e-01 -2.32151e-01
       H  1.38951e+00  1.07903e+00 -6.02818e-01
       H -1.81485e-01 -1.09963e+00  5.96607e-01
       L  2.88246e+00  2.50641e+00 -2.29399e+00
       L  9.90180e-01 -8.84731e-01 -1.87179e-01
6
# CELL(abcABC):  459.05226   459.05226   459.05226    90.00000    90.00000    90.00000  Step:          28  Bead:       0 x_centroid{angstrom}  cell{atomic_unit}
       C -4.29451e-01 -1.06651e-01  1.60649e-01
       O  7.99517e-01  2.52408e-01 -2.35554e-01
       H  1.41878e+00  1.03458e+00 -5.78591e-01
       H -1.59087e-01 -1.10244e+00  5.85478e-01
       L  2.70768e+00  1.95417e+00 -2.11309e+00
       L  7.01948e-01 -7.23430e-01 -2.90240e-01
6
# CELL(abcABC):  459.05226   459.05226   459.05226    90.00000    90.00000    90.00000  Step:          29  Bead:       0 x_centroid{angstrom}  cell{atomic_unit}
       C -4.31646e-01 -1.04759e-01  1.63867e-01
       O  7.98618e-01  2.54276e-01 -2.38885e-01
       H  1.43696e+00  9.85261e-01 -5.51679e-01
       H -1.36594e-01 -1.10513e+00  5.73034e-01
       L  2.50118e+00  1.42938e+00 -1.87903e+00
       L  4.53041e-01 -5.25364e-01 -4.11612e-01
6
# CELL(abcABC):  459.05226   459.05226   459.05226    90.00000    90.00000    90.00000  Step:          30  Bead:       0 x_centroid{angstrom}  cell{atomic_unit}
       C -4.33243e-01 -1.02829e-01  1.66879e-01
       O  7.97942e-01  2.56227e-01 -2.42143e-01
       H  1.44615e+00  9.33982e-01 -5.23231e-01
       H -1.15742e-01 -1.10767e+00  5.60312e-01
       L  2.28642e+00  9.13850e-01 -1.63535e+00
       L  1.65983e-01 -2.88778e-01 -4.70796e-01
6
# CELL(abcABC):  459.05226   459.05226   459.05226    90.00000    90.00000    90.00000  Step:          31  Bead:       0 x_centroid{angstrom}  cell{atomic_unit}
       C -4.34308e-01 -1.00570e-01  1.69669e-01
       O  7.97499e-01  2.57888e-01 -2.45216e-01
       H  1.44872e+00  8.82369e-01 -4.93923e-01
       H -9.82925e-02 -1.10918e+00  5.46456e-01
       L  2.00263e+00  3.60872e-01 -1.42393e+00
       L -1.16138e-01 -2.55230e-02 -5.34158e-01
6
# CELL(abcABC):  459.05226   459.05226   459.05226    90.00000    90.00000    90.00000  Step:          32  Bead:       0 x_centroid{angstrom}  cell{atomic_unit}
       C -4.35070e-01 -9.80808e-02  1.72589e-01
       O  7.97125e-01  2.58935e-01 -2.48176e-01
       H  1.44919e+00  8.35873e-01 -4.66235e-01
       H -8.34279e-02 -1.10881e+00  5.30920e-01
       L  1.72282e+00 -1.81940e-01 -1.23689e+00
       L -4.29522e-01  2.30901e-01 -6.60175e-01
6
# CELL(abcABC):  459.05226   459.05226   459.05226    90.00000    90.00000    90.00000  Step:          33  Bead:       0 x_centroid{angstrom}  cell{atomic_unit}
       C -4.35344e-01 -9.56374e-02  1.75659e-01
       O  7.96413e-01  2.59395e-01 -2.51081e-01
       H  1.45152e+00  7.98902e-01 -4.40606e-01
       H -7.08521e-02 -1.10811e+00  5.14763e-01
       L  1.40994e+00 -7.39414e-01 -1.01714e+00
       L -7.13794e-01  5.09913e-01 -7.79139e-01
6
# CELL(abcABC):  459.05226   459.05226   459.05226    90.00000    90.00000    90.00000  Step:          34  Bead:       0 x_centroid{angstrom}  cell{atomic_unit}
       C -4.34828e-01 -9.30882e-02  1.78322e-01
       O  7.94953e-01  2.58900e-01 -2.53475e-01
       H  1.46056e+00  7.73950e-01 -4.18529e-01
       H -6.25162e-02 -1.10552e+00  4.98906e-01
       L  1.01653e+00 -1.30521e+00 -7.97632e-01
       L -9.78913e-01  7.86519e-01 -8.90766e-01
6
# CELL(abcABC):  459.05226   459.05226   459.05226    90.00000    90.00000    90.00000  Step:          35  Bead:       0 x_centroid{angstrom}  cell{atomic_unit}
       C -4.34020e-01 -9.04566e-02  1.80958e-01
       O  7.93010e-01  2.57532e-01 -2.55701e-01
       H  1.47783e+00  7.62233e-01 -3.99452e-01
       H -5.82165e-02 -1.10334e+00  4.83718e-01
       L  6.39392e-01 -1.83441e+00 -5.80924e-01
       L -1.26928e+00  1.13306e+00 -1.02732e+00
6
# CELL(abcABC):  459.05226   459.05226   459.05226    90.00000    90.00000    90.00000  Step:          36  Bead:       0 x_centroid{angstrom}  cell{atomic_unit}
       C -4.32725e-01 -8.78127e-02  1.83785e-01
       O  7.90439e-01  2.55448e-01 -2.57997e-01
       H  1.50466e+00  7.62667e-01 -3.82696e-01
       H -5.92854e-02 -1.10215e+00  4.69640e-01
       L  2.29848e-01 -2.32250e+00 -3.59630e-01
       L -1.53753e+00  1.51828e+00 -1.11419e+00
6
# CELL(abcABC):  459.05226   459.05226   459.05226    90.00000    90.00000    90.00000  Step:          37  Bead:       0 x_centroid{angstrom}  cell{atomic_unit}
       C -4.30862e-01 -8.50457e-02  1.86844e-01
       O  7.87405e-01  2.52768e-01 -2.60383e-01
       H  1.53709e+00  7.71112e-01 -3.67816e-01
       H -6.54410e-02 -1.10095e+00  4.56107e-01
       L -1.16595e-01 -2.83802e+00 -1.15925e-01
       L -1.76103e+00  1.88614e+00 -1.22875e+00
6
# CELL(abcABC):  459.05226   459.05226   459.05226    90.00000    90.00000    90.00000  Step:          38  Bead:       0 x_centroid{angstrom}  cell{atomic_unit}
       C -4.28297e-01 -8.22005e-02  1.89703e-01
       O  7.84088e-01  2.49805e-01 -2.62642e-01
       H  1.57005e+00  7.84088e-01 -3.53553e-01
       H -7.60442e-02 -1.10074e+00  4.43527e-01
       L -4.28637e-01 -3.33313e+00  1.67874e-01
       L -1.96209e+00  2.28103e+00 -1.30252e+00
6
# CELL(abcABC):  459.05226   459.05226   459.05226    90.00000    90.00000    90.00000  Step:          39  Bead:       0 x_centroid{angstrom}  cell{atomic_unit}
       C -4.25276e-01 -7.95671e-02  1.92300e-01
       O  7.80985e-01  2.46858e-01 -2.64811e-01
       H  1.59863e+00  8.01497e-01 -3.37183e-01
       H -9.10816e-02 -1.10274e+00  4.30513e-01
       L -7.59401e-01 -3.77356e+00  5.04157e-01
       L -2.16819e+00  2.71645e+00 -1.40670e+00
6
# CELL(abcABC):  459.05226   459.05226   459.05226    90.00000    90.00000    90.00000  Step:          40  Bead:       0 x_centroid{angstrom}  cell{atomic_unit}
       C -4.21615e-01 -7.68007e-02  1.95001e-01
       O  7.78182e-01  2.43898e-01 -2.67152e-01
       H  1.61978e+00  8.18085e-01 -3.20809e-01
       H -1.11074e-01 -1.10533e+00  4.19004e-01
       L -1.07147e+00 -4.16141e+00  8.36601e-01
       L -2.36034e+00  3.14205e+00 -1.55923e+00
6
# CELL(abcABC):  459.05226   459.05226   459.05226    90.00000    90.00000    90.00000  Step:          41  Bead:       0 x_centroid{angstrom}  cell{atomic_unit}
       C -4.17589e-01 -7.37423e-02  1.97731e-01
       O  7.75939e-01  2.40878e-01 -2.69558e-01
       H  1.63133e+00  8.32521e-01 -3.03722e-01
       H -1.34728e-01 -1.10833e+00  4.07471e-01
       L -1.43415e+00 -4.46550e+00  1.15767e+00
       L -2.47433e+00  3.56548e+00 -1.68446e+00
6
# CELL(abcABC):  459.05226   459.05226   459.05226    90.00000    90.00000    90.00000  Step:          42  Bead:       0 x_centroid{angstrom}  cell{atomic_unit}
       C -4.13404e-01 -7.05046e-02  2.00260e-01
       O  7.74382e-01  2.38064e-01 -2.71955e-01
       H  1.63348e+00  8.44151e-01 -2.85214e-01
       H -1.61824e-01 -1.11397e+00  3.96786e-01
       L -1.77071e+00 -4.73058e+00  1.48135e+00
       L -2.53382e+00  3.99189e+00 -1.82254e+00
6
# CELL(abcABC):  459.05226   459.05226   459.05226    90.00000    90.00000    90.00000  Step:          43  Bead:       0 x_centroid{angstrom}  cell{atomic_unit}
       C -4.09062e-01 -6.71685e-02  2.02792e-01
       O  7.73465e-01  2.35461e-01 -2.74359e-01
       H  1.62548e+00  8.52509e-01 -2.66711e-01
       H -1.90818e-01 -1.12084e+00  3.86212e-01
       L -2.04867e+00 -4.96229e+00  1.72287e+00
       L -2.61266e+00  4.37468e+00 -1.96389e+00
6
# CELL(abcABC):  459.05226   459.05226   459.05226    90.00000    90.00000    90.00000  Step:          44  Bead:       0 x_centroid{angstrom}  cell{atomic_unit}
       C -4.04780e-01 -6.36962e-02  2.05297e-01
       O  7.73433e-01  2.32961e-01 -2.76809e-01
       H  1.60573e+00  8.58630e-01 -2.46661e-01
       H -2.21387e-01 -1.12873e+00  3.75118e-01
       L -2.30968e+00 -5.12804e+00  2.01621e+00
       L -2.72263e+00  4.66478e+00 -2.11208e+00
6
# CELL(abcABC):  459.05226   459.05226   459.05226    90.00000    90.00000    90.00000  Step:          45  Bead:       0 x_centroid{angstrom}  cell{atomic_unit}
       C -4.00372e-01 -6.00487e-02  2.08016e-01
       O  7.73982e-01  2.30607e-01 -2.79367e-01
       H  1.57666e+00  8.61858e-01 -2.27000e-01
       H -2.53369e-01 -1.13814e+00  3.63563e-01
       L -2.53606e+00 -5.21051e+00  2.31671e+00
       L -2.83834e+00  4.89885e+00 -2.22716e+00
6
# CELL(abcABC):  459.05226   459.05226   459.05226    90.00000    90.00000    90.00000  Step:          46  Bead:       0 x_centroid{angstrom}  cell{atomic_unit}
       C -3.95925e-01 -5.61788e-02  2.10678e-01
       O  7.75210e-01  2.28188e-01 -2.81845e-01
       H  1.53830e+00  8.63562e-01 -2.07325e-01
       H -2.87306e-01 -1.14766e+00  3.51381e-01
       L -2.75535e+00 -5.22597e+00  2.63539e+00
       L -2.97421e+00  5.11931e+00 -2.30459e+00
6
# CELL(abcABC):  459.05226   459.05226   459.05226    90.00000    90.00000    90.00000  Step:          47  Bead:       0 x_centroid{angstrom}  cell{atomic_unit}
       C -3.91550e-01 -5.19220e-02  2.13528e-01
       O  7.77050e-01  2.25433e-01 -2.84399e-01
       H  1.49368e+00  8.65105e-01 -1.88340e-01
       H -3.23840e-01 -1.15635e+00  3.38881e-01
       L -2.96184e+00 -5.12700e+00  2.89204e+00
       L -3.08864e+00  5.28669e+00 -2.39793e+00
6
# CELL(abcABC):  459.05226   459.05226   459.05226    90.00000    90.00000    90.00000  Step:          48  Bead:       0 x_centroid{angstrom}  cell{atomic_unit}
       C -3.87241e-01 -4.73191e-02  2.16819e-01
       O  7.79287e-01  2.22346e-01 -2.87205e-01
       H  1.44362e+00  8.67546e-01 -1.69480e-01
       H -3.60459e-01 -1.16479e+00  3.25257e-01
       L -3.17900e+00 -4.97882e+00  3.13780e+00
       L -3.19482e+00  5.42628e+00 -2.46976e+00
6
# CELL(abcABC):  459.05226   459.05226   459.05226    90.00000    90.00000    90.00000  Step:          49  Bead:       0 x_centroid{angstrom}  cell{atomic_unit}
       C -3.83069e-01 -4.25144e-02  2.20354e-01
       O  7.81795e-01  2.18692e-01 -2.90108e-01
       H  1.39110e+00  8.74383e-01 -1.50086e-01
       H -3.97325e-01 -1.17104e+00  3.09739e-01
       L -3.34353e+00 -4.82917e+00  3.35782e+00
       L -3.31421e+00  5.55936e+00 -2.56184e+00
6
# CELL(abcABC):  459.05226   459.05226   459.05226    90.00000    90.00000    90.00000  Step:          50  Bead:       0 x_centroid{angstrom}  cell{atomic_unit}
       C -3.78918e-01 -3.76141e-02  2.23861e-01
       O  7.84268e-01  2.14349e-01 -2.92983e-01
       H  1.33881e+00  8.88077e-01 -1.29187e-01
       H -4.33628e-01 -1.17430e+00  2.92608e-01
       L -3.43931e+00 -4.68297e+00  3.61009e+00
       L -3.42139e+00  5.65525e+00 -2.66106e+00
6
# CELL(abcABC):  459.05226   459.05226   459.05226    90.00000    90.00000    90.00000  Step:          51  Bead:       0 x_centroid{angstrom}  cell{atomic_unit}
       C -3.74665e-01 -3.27257e-02  2.27489e-01
       O  7.86457e-01  2.09236e-01 -2.96032e-01
       H  1.29004e+00  9.12121e-01 -1.05408e-01
       H -4.70196e-01 -1.17559e+00  2.73959e-01
       L -3.54060e+00 -4.51305e+00  3.78032e+00
       L -3.49578e+00  5.76106e+00 -2.76615e+00
6
# CELL(abcABC):  459.05226   459.05226   459.05226    90.00000    90.00000    90.00000  Step:          52  Bead:       0 x_centroid{angstrom}  cell{atomic_unit}
       C -3.70442e-01 -2.79254e-02  2.31186e-01
       O  7.88427e-01  2.03196e-01 -2.99127e-01
       H  1.24436e+00  9.46783e-01 -7.90769e-02
       H -5.06094e-01 -1.17176e+00  2.52683e-01
       L -3.59905e+00 -4.25436e+00  3.93007e+00
       L -3.45540e+00  5.81484e+00 -2.89253e+00
6
# CELL(abcABC):  459.05226   459.05226   459.05226    90.00000    90.00000    90.00000  Step:          53  Bead:       0 x_centroid{angstrom}  cell{atomic_unit}
       C -3.66181e-01 -2.27679e-02  2.35202e-01
       O  7.90217e-01  1.96141e-01 -3.02380e-01
       H  1.20030e+00  9.90629e-01 -5.18948e-02
       H -5.41283e-01 -1.16523e+00  2.29274e-01
       L -3.61027e+00 -3.96088e+00  4.05940e+00
       L -3.31559e+00  5.81007e+00 -3.01048e+00
6
# CELL(abcABC):  459.05226   459.05226   459.05226    90.00000    90.00000    90.00000  Step:          54  Bead:       0 x_centroid{angstrom}  cell{atomic_unit}
       C -3.62145e-01 -1.72364e-02  2.39511e-01
       O  7.92060e-01  1.88278e-01 -3.05780e-01
       H  1.15646e+00  1.03819e+00 -2.45540e-02
       H -5.74893e-01 -1.15402e+00  2.04538e-01
       L -3.60324e+00 -3.66423e+00  4.15771e+00
       L -3.12745e+00  5.75962e+00 -3.04938e+00
6
# CELL(abcABC):  459.05226   459.05226   459.05226    90.00000    90.00000    90.00000  Step:          55  Bead:       0 x_centroid{angstrom}  cell{atomic_unit}
       C -3.58263e-01 -1.21614e-02  2.43797e-01
       O  7.93984e-01  1.80685e-01 -3.09036e-01
       H  1.11049e+00  1.08410e+00  2.12652e-03
       H -6.05856e-01 -1.13997e+00  1.78412e-01
       L -3.58667e+00 -3.36399e+00  4.20420e+00
       L -2.91493e+00  5.62756e+00 -3.01840e+00
6
# CELL(abcABC):  459.05226   459.05226   459.05226    90.00000    90.00000    90.00000  Step:          56  Bead:       0 x_centroid{angstrom}  cell{atomic_unit}
       C -3.54631e-01 -7.19356e-03  2.48091e-01
       O  7.96163e-01  1.73341e-01 -3.12038e-01
       H  1.06282e+00  1.12460e+00  2.58651e-02
       H -6.36257e-01 -1.12316e+00  1.51141e-01
       L -3.47379e+00 -3.05653e+00  4.28295e+00
       L -2.65211e+00  5.46572e+00 -3.06233e+00
6
# CELL(abcABC):  459.05226   459.05226   459.05226    90.00000    90.00000    90.00000  Step:          57  Bead:       0 x_centroid{angstrom}  cell{atomic_unit}
       C -3.51496e-01 -2.55289e-03  2.52408e-01
       O  7.98615e-01  1.66476e-01 -3.14828e-01
       H  1.01417e+00  1.15741e+00  4.60884e-02
       H -6.64089e-01 -1.10240e+00  1.23815e-01
       L -3.35881e+00 -2.70919e+00  4.27536e+00
       L -2.39117e+00  5.25581e+00 -3.14632e+00
6
# CELL(abcABC):  459.05226   459.05226   459.05226    90.00000    90.00000    90.00000  Step:          58  Bead:       0 x_centroid{angstrom}  cell{atomic_unit}
       C -3.48732e-01  1.85505e-03  2.57084e-01
       O  8.01179e-01  1.60282e-01 -3.17460e-01
       H  9.65782e-01  1.17970e+00  6.15797e-02
       H -6.89576e-01 -1.07896e+00  9.44775e-02
       L -3.22729e+00 -2.30784e+00  4.20661e+00
       L -2.09828e+00  4.98086e+00 -3.23363e+00
6
# CELL(abcABC):  459.05226   459.05226   459.05226    90.00000    90.00000    90.00000  Step:          59  Bead:       0 x_centroid{angstrom}  cell{atomic_unit}
       C -3.46171e-01  5.97288e-03  2.61622e-01
       O  8.03674e-01  1.54814e-01 -3.19615e-01
       H  9.18044e-01  1.19132e+00  7.08893e-02
       H -7.12192e-01 -1.05293e+00  6.53848e-02
       L -3.05696e+00 -1.87760e+00  4.06995e+00
       L -1.82981e+00  4.69606e+00 -3.25900e+00
6
# CELL(abcABC):  459.05226   459.05226   459.05226    90.00000    90.00000    90.00000  Step:          60  Bead:       0 x_centroid{angstrom}  cell{atomic_unit}
       C -3.43659e-01  9.62879e-03  2.66079e-01
       O  8.05980e-01  1.50323e-01 -3.21351e-01
       H  8.73086e-01  1.19191e+00  7.39374e-02
       H -7.34050e-01 -1.02586e+00  3.68662e-02
       L -2.84267e+00 -1.39336e+00  3.92842e+00
       L -1.53456e+00  4.32571e+00 -3.26217e+00
6
# CELL(abcABC):  459.05226   459.05226   459.05226    90.00000    90.00000    90.00000  Step:          61  Bead:       0 x_centroid{angstrom}  cell{atomic_unit}
       C -3.41484e-01  1.27805e-02  2.70707e-01
       O  8.08192e-01  1.46830e-01 -3.22696e-01
       H  8.31478e-01  1.18112e+00  6.94980e-02
       H -7.53732e-01 -9.97247e-01  7.65551e-03
       L -2.64154e+00 -8.67553e-01  3.67063e+00
       L -1.24751e+00  3.92256e+00 -3.28207e+00
6
# CELL(abcABC):  459.05226   459.05226   459.05226    90.00000    90.00000    90.00000  Step:          62  Bead:       0 x_centroid{angstrom}  cell{atomic_unit}
       C -3.39613e-01  1.56899e-02  2.75181e-01
       O  8.10206e-01  1.44245e-01 -3.23554e-01
       H  7.95200e-01  1.15925e+00  5.93728e-02
       H -7.72019e-01 -9.69052e-01 -2.17495e-02
       L -2.38566e+00 -3.29548e-01  3.37364e+00
       L -9.59785e-01  3.45814e+00 -3.29982e+00
6
# CELL(abcABC):  459.05226   459.05226   459.05226    90.00000    90.00000    90.00000  Step:          63  Bead:       0 x_centroid{angstrom}  cell{atomic_unit}
       C -3.38012e-01  1.82036e-02  2.79761e-01
       O  8.12066e-01  1.42528e-01 -3.24084e-01
       H  7.63785e-01  1.12747e+00  4.30955e-02
       H -7.89541e-01 -9.39966e-01 -5.14710e-02
       L -2.09148e+00  1.91415e-01  3.04139e+00
       L -6.35062e-01  2.95091e+00 -3.26071e+00
6
# CELL(abcABC):  459.05226   459.05226   459.05226    90.00000    90.00000    90.00000  Step:          64  Bead:       0 x_centroid{angstrom}  cell{atomic_unit}
       C -3.36756e-01  2.02026e-02  2.84035e-01
       O  8.13537e-01  1.41587e-01 -3.24122e-01
       H  7.39316e-01  1.08825e+00  2.25953e-02
       H -8.03747e-01 -9.09674e-01 -8.11321e-02
       L -1.75010e+00  7.27055e-01  2.65300e+00
       L -3.10740e-01  2.47415e+00 -3.17941e+00
6
# CELL(abcABC):  459.05226   459.05226   459.05226    90.00000    90.00000    90.00000  Step:          65  Bead:       0 x_centroid{angstrom}  cell{atomic_unit}
       C -3.36062e-01  2.17034e-02  2.88275e-01
       O  8.14898e-01  1.41383e-01 -3.23960e-01
       H  7.22835e-01  1.04449e+00 -1.23062e-03
       H -8.17528e-01 -8.80538e-01 -1.10258e-01
       L -1.35190e+00  1.22834e+00  2.25567e+00
       L  1.36595e-02  1.93875e+00 -3.05125e+00
6
# CELL(abcABC):  459.05226   459.05226   459.05226    90.00000    90.00000    90.00000  Step:          66  Bead:       0 x_centroid{angstrom}  cell{atomic_unit}
       C -3.35712e-01  2.28550e-02  2.92463e-01