6
# CELL(abcABC):  459.05226   459.05226   459.05226    90.00000    90.00000    90.00000  Step:           0  Bead:       0 x_centroid{angstrom}  cell{atomic_unit}
       C -3.39887e-01 -1.13437e-01  8.06659e-02
       O  8.43483e-01  2.62672e-01 -1.81512e-01
       H -7.35799e-02  8.16467e-01 -6.61432e-01
       H -4.30016e-01 -9.65701e-01  7.62278e-01
       L  0.00000e+00  0.00000e+00  0.00000e+00
       L  0.00000e+00  0.00000e+00  0.00000e+00
6
# CELL(abcABC):  459.05226   459.05226   459.05226    90.00000    90.00000    90.00000  Step:           1  Bead:       0 x_centroid{angstrom}  cell{atomic_unit}
       C -3.40036e-01 -1.15964e-01  8.04710e-02
       O  8.44463e-01  2.64511e-01 -1.80507e-01
       H -8.67797e-02  8.14498e-01 -6.67281e-01
       H -4.30652e-01 -9.63128e-01  7.54328e-01
       L -8.93238e-02  4.00847e-01  1.85487e-01
       L  1.95515e-01  1.68177e-01  1.15954e-01
6
# CELL(abcABC):  459.05226   459.05226   459.05226    90.00000    90.00000    90.00000  Step:           2  Bead:       0 x_centroid{angstrom}  cell{atomic_unit}
       C -3.40160e-01 -1.18554e-01  8.01236e-02
       O  8.45359e-01  2.66495e-01 -1.79507e-01
       H -9.90274e-02  8.11645e-01 -6.72247e-01
       H -4.31193e-01 -9.61228e-01  7.47376e-01
       L -1.80535e-01  8.12126e-01  3.95396e-01
       L  3.60604e-01  3.49454e-01  2.48497e-01
6
# CELL(abcABC):  459.05226   459.05226   459.05226    90.00000    90.00000    90.00000  Step:           3  Bead:       0 x_centroid{angstrom}  cell{atomic_unit}
       C -3.40060e-01 -1.20880e-01  7.95484e-02
       O  8.46127e-01  2.68435e-01 -1.78523e-01
       H -1.10984e-01  8.08503e-01 -6.75766e-01
       H -4.32618e-01 -9.61476e-01  7.41927e-01
       L -2.72821e-01  1.15012e+00  6.29009e-01
       L  4.54180e-01  5.84577e-01  3.75599e-01
6
# CELL(abcABC):  459.05226   459.05226   459.05226    90.00000    90.00000    90.00000  Step:           4  Bead:       0 x_centroid{angstrom}  cell{atomic_unit}
       C -3.39760e-01 -1.23078e-01  7.84524e-02
       O  8.47018e-01  2.70329e-01 -1.77289e-01
       H -1.25633e-01  8.04221e-01 -6.78384e-01
       H -4.35643e-01 -9.61335e-01  7.37834e-01
       L -4.12684e-01  1.44358e+00  8.75198e-01
       L  5.11019e-01  7.85747e-01  4.71319e-01
6
# CELL(abcABC):  459.05226   459.05226   459.05226    90.00000    90.00000    90.00000  Step:           5  Bead:       0 x_centroid{angstrom}  cell{atomic_unit}
       C -3.39085e-01 -1.24665e-01  7.70244e-02
       O  8.47846e-01  2.72011e-01 -1.75878e-01
       H -1.42496e-01  7.96784e-01 -6.80707e-01
       H -4.39911e-01 -9.61905e-01  7.34604e-01
       L -5.22186e-01  1.66355e+00  1.10785e+00
       L  5.25106e-01  9.65858e-01  5.45984e-01
6
# CELL(abcABC):  459.05226   459.05226   459.05226    90.00000    90.00000    90.00000  Step:           6  Bead:       0 x_centroid{angstrom}  cell{atomic_unit}
       C -3.37793e-01 -1.25584e-01  7.53385e-02
       O  8.48597e-01  2.73318e-01 -1.74362e-01
       H -1.63227e-01  7.87349e-01 -6.82302e-01
       H -4.46430e-01 -9.62484e-01  7.32104e-01
       L -6.05425e-01  1.80140e+00  1.28853e+00
       L  4.68503e-01  1.22496e+00  5.92440e-01
6
# CELL(abcABC):  459.05226   459.05226   459.05226    90.00000    90.00000    90.00000  Step:           7  Bead:       0 x_centroid{angstrom}  cell{atomic_unit}
       C -3.36431e-01 -1.25864e-01  7.34594e-02
       O  8.49546e-01  2.74382e-01 -1.72936e-01
       H -1.88048e-01  7.75625e-01 -6.82675e-01
       H -4.52798e-01 -9.64495e-01  7.32130e-01
       L -7.06999e-01  1.88833e+00  1.45815e+00
       L  3.90491e-01  1.48691e+00  6.22205e-01
6
# CELL(abcABC):  459.05226   459.05226   459.05226    90.00000    90.00000    90.00000  Step:           8  Bead:       0 x_centroid{angstrom}  cell{atomic_unit}
       C -3.34176e-01 -1.25826e-01  7.14385e-02
       O  8.50292e-01  2.75360e-01 -1.71481e-01
       H -2.18903e-01  7.62163e-01 -6.83417e-01
       H -4.60534e-01 -9.67190e-01  7.33747e-01
       L -8.36594e-01  1.98405e+00  1.59526e+00
       L  2.93401e-01  1.71255e+00  6.73435e-01
6
# CELL(abcABC):  459.05226   459.05226   459.05226    90.00000    90.00000    90.00000  Step:           9  Bead:       0 x_centroid{angstrom}  cell{atomic_unit}
       C -3.31368e-01 -1.25213e-01  6.89402e-02
       O  8.51140e-01  2.76041e-01 -1.69769e-01
       H -2.58016e-01  7.46761e-01 -6.82815e-01
       H -4.68267e-01 -9.70078e-01  7.35656e-01
       L -9.33242e-01  2.04374e+00  1.70332e+00
       L  2.40837e-01  1.97051e+00  7.36612e-01
6
# CELL(abcABC):  459.05226   459.05226   459.05226    90.00000    90.00000    90.00000  Step:          10  Bead:       0 x_centroid{angstrom}  cell{atomic_unit}
       C -3.27743e-01 -1.24001e-01  6.57654e-02
       O  8.52059e-01  2.76353e-01 -1.67673e-01
       H -3.05938e-01  7.29183e-01 -6.81980e-01
       H -4.78057e-01 -9.72062e-01  7.39314e-01
       L -1.04254e+00  2.09336e+00  1.77916e+00
       L  2.31228e-01  2.22674e+00  7.64345e-01
6
# CELL(abcABC):  459.05226   459.05226   459.05226    90.00000    90.00000    90.00000  Step:          11  Bead:       0 x_centroid{angstrom}  cell{atomic_unit}
       C -3.23129e-01 -1.22420e-01  6.20857e-02
       O  8.53112e-01  2.76414e-01 -1.65209e-01
       H -3.66244e-01  7.09491e-01 -6.79833e-01
       H -4.89316e-01 -9.72344e-01  7.41872e-01
       L -1.18453e+00  2.15254e+00  1.84446e+00
       L  1.45936e-01  2.46994e+00  7.59660e-01
6
# CELL(abcABC):  459.05226   459.05226   459.05226    90.00000    90.00000    90.00000  Step:          12  Bead:       0 x_centroid{angstrom}  cell{atomic_unit}
       C -3.17609e-01 -1.20269e-01  5.79742e-02
       O  8.54346e-01  2.75942e-01 -1.62199e-01
       H -4.38612e-01  6.88873e-01 -6.78472e-01
       H -5.02234e-01 -9.70011e-01  7.41674e-01
       L -1.34309e+00  2.17123e+00  1.89962e+00
       L  1.54068e-01  2.73170e+00  7.87704e-01
6
# CELL(abcABC):  459.05226   459.05226   459.05226    90.00000    90.00000    90.00000  Step:          13  Bead:       0 x_centroid{angstrom}  cell{atomic_unit}
       C -3.10997e-01 -1.17460e-01  5.33376e-02
       O  8.55671e-01  2.74904e-01 -1.58724e-01
       H -5.23513e-01  6.67485e-01 -6.76613e-01
       H -5.17067e-01 -9.65727e-01  7.39884e-01
       L -1.48241e+00  2.19040e+00  1.95871e+00
       L  1.38982e-01  2.90982e+00  7.92151e-01
6
# CELL(abcABC):  459.05226   459.05226   459.05226    90.00000    90.00000    90.00000  Step:          14  Bead:       0 x_centroid{angstrom}  cell{atomic_unit}
       C -3.03271e-01 -1.13975e-01  4.78516e-02
       O  8.57018e-01  2.73318e-01 -1.54582e-01
       H -6.20261e-01  6.43386e-01 -6.73888e-01
       H -5.33691e-01 -9.58102e-01  7.36728e-01
       L -1.62062e+00  2.20554e+00  2.02930e+00
       L  1.36418e-01  3.09807e+00  8.03311e-01
6
# CELL(abcABC):  459.05226   459.05226   459.05226    90.00000    90.00000    90.00000  Step:          15  Bead:       0 x_centroid{angstrom}  cell{atomic_unit}
       C -2.94574e-01 -1.09822e-01  4.19179e-02
       O  8.58382e-01  2.71350e-01 -1.50111e-01
       H -7.26315e-01  6.14904e-01 -6.68073e-01
       H -5.52841e-01 -9.47951e-01  7.30644e-01
       L -1.80648e+00  2.22293e+00  2.06796e+00
       L  1.67488e-01  3.24440e+00  7.97940e-01
6
# CELL(abcABC):  459.05226   459.05226   459.05226    90.00000    90.00000    90.00000  Step:          16  Bead:       0 x_centroid{angstrom}  cell{atomic_unit}
       C -2.85035e-01 -1.05081e-01  3.55286e-02
       O  8.59727e-01  2.69100e-01 -1.45296e-01
       H -8.40491e-01  5.82291e-01 -6.60314e-01
       H -5.73610e-01 -9.36178e-01  7.22620e-01
       L -1.94387e+00  2.22867e+00  2.02419e+00
       L  1.79796e-01  3.34073e+00  7.84252e-01
6
# CELL(abcABC):  459.05226   459.05226   459.05226    90.00000    90.00000    90.00000  Step:          17  Bead:       0 x_centroid{angstrom}  cell{atomic_unit}
       C -2.75064e-01 -9.97514e-02  2.86258e-02
       O  8.60975e-01  2.66598e-01 -1.40169e-01
       H -9.58549e-01  5.44212e-01 -6.49199e-01
       H -5.94105e-01 -9.21894e-01  7.12450e-01
       L -2.08197e+00  2.23568e+00  1.93791e+00
       L  1.88866e-01  3.34097e+00  7.15884e-01
6
# CELL(abcABC):  459.05226   459.05226   459.05226    90.00000    90.00000    90.00000  Step:          18  Bead:       0 x_centroid{angstrom}  cell{atomic_unit}
       C -2.65059e-01 -9.38373e-02  2.10929e-02
       O  8.62081e-01  2.63840e-01 -1.34755e-01
       H -1.07555e+00  5.02252e-01 -6.34084e-01
       H -6.13796e-01 -9.06603e-01  7.01225e-01
       L -2.21350e+00  2.20771e+00  1.84765e+00
       L  1.67551e-01  3.33083e+00  6.84612e-01
6
# CELL(abcABC):  459.05226   459.05226   459.05226    90.00000    90.00000    90.00000  Step:          19  Bead:       0 x_centroid{angstrom}  cell{atomic_unit}
       C -2.55078e-01 -8.77582e-02  1.32871e-02
       O  8.62827e-01  2.61111e-01 -1.29255e-01
       H -1.18874e+00  4.55692e-01 -6.15522e-01
       H -6.31313e-01 -8.89180e-01  6.88480e-01
       L -2.34128e+00  2.19509e+00  1.70652e+00
       L  1.39379e-01  3.37697e+00  6.34676e-01
6
# CELL(abcABC):  459.05226   459.05226   459.05226    90.00000    90.00000    90.00000  Step:          20  Bead:       0 x_centroid{angstrom}  cell{atomic_unit}
       C -2.45683e-01 -8.16315e-02  5.29281e-03
       O  8.63432e-01  2.58507e-01 -1.23987e-01
       H -1.29424e+00  4.04362e-01 -5.91506e-01
       H -6.47229e-01 -8.69510e-01  6.76263e-01
       L -2.49461e+00  2.16901e+00  1.47578e+00
       L  6.57305e-02  3.38306e+00  5.91716e-01
6
# CELL(abcABC):  459.05226   459.05226   459.05226    90.00000    90.00000    90.00000  Step:          21  Bead:       0 x_centroid{angstrom}  cell{atomic_unit}
       C -2.37299e-01 -7.55554e-02 -3.07814e-03
       O  8.64126e-01  2.55932e-01 -1.18658e-01
       H -1.39143e+00  3.51868e-01 -5.64602e-01
       H -6.60871e-01 -8.48495e-01  6.64703e-01
       L -2.60791e+00  2.10360e+00  1.18801e+00
       L  2.90836e-02  3.34020e+00  5.35804e-01
6
# CELL(abcABC):  459.05226   459.05226   459.05226    90.00000    90.00000    90.00000  Step:          22  Bead:       0 x_centroid{angstrom}  cell{atomic_unit}
       C -2.30266e-01 -6.93824e-02 -1.14385e-02
       O  8.64983e-01  2.53380e-01 -1.13482e-01
       H -1.47811e+00  2.97982e-01 -5.35989e-01
       H -6.71557e-01 -8.27551e-01  6.53753e-01
       L -2.68446e+00  2.00306e+00  8.82062e-01
       L  5.91112e-03  3.24719e+00  4.80223e-01
6
# CELL(abcABC):  459.05226   459.05226   459.05226    90.00000    90.00000    90.00000  Step:          23  Bead:       0 x_centroid{angstrom}  cell{atomic_unit}
       C -2.24557e-01 -6.33221e-02 -1.94012e-02
       O  8.65979e-01  2.50906e-01 -1.08709e-01
       H -1.55328e+00  2.44113e-01 -5.06425e-01
       H -6.80160e-01 -8.06491e-01  6.43478e-01
       L -2.75071e+00  1.84246e+00  6.16269e-01
       L -5.30253e-02  3.15424e+00  4.29773e-01
6
# CELL(abcABC):  459.05226   459.05226   459.05226    90.00000    90.00000    90.00000  Step:          24  Bead:       0 x_centroid{angstrom}  cell{atomic_unit}
       C -2.20529e-01 -5.73811e-02 -2.73346e-02
       O  8.67283e-01  2.48531e-01 -1.04099e-01
       H -1.61747e+00  1.92405e-01 -4.75936e-01
       H -6.84617e-01 -7.87693e-01  6.34548e-01
       L -2.84212e+00  1.65835e+00  3.30808e-01
       L -5.18354e-02  3.02478e+00  3.51520e-01
6
# CELL(abcABC):  459.05226   459.05226   459.05226    90.00000    90.00000    90.00000  Step:          25  Bead:       0 x_centroid{angstrom}  cell{atomic_unit}
       C -2.18324e-01 -5.18656e-02 -3.49720e-02
       O  8.69087e-01  2.46478e-01 -9.98076e-02
       H -1.67113e+00  1.42745e-01 -4.45362e-01
       H -6.85852e-01 -7.71008e-01  6.27089e-01
       L -2.87057e+00  1.47390e+00  4.24414e-02
       L -6.63979e-02  2.89445e+00  2.11016e-01
6
# CELL(abcABC):  459.05226   459.05226   459.05226    90.00000    90.00000    90.00000  Step:          26  Bead:       0 x_centroid{angstrom}  cell{atomic_unit}
       C -2.18070e-01 -4.69004e-02 -4.21194e-02
       O  8.71378e-01  2.44686e-01 -9.57226e-02
       H -1.71427e+00  9.77741e-02 -4.18149e-01
       H -6.82067e-01 -7.56582e-01  6.20423e-01
       L -2.88926e+00  1.30483e+00 -2.36624e-01
       L -1.05659e-01  2.75563e+00  8.61204e-02
6
# CELL(abcABC):  459.05226   459.05226   459.05226    90.00000    90.00000    90.00000  Step:          27  Bead:       0 x_centroid{angstrom}  cell{atomic_unit}
       C -2.19571e-01 -4.25616e-02 -4.86355e-02
       O  8.74133e-01  2.43297e-01 -9.20458e-02
       H -1.74856e+00  5.67608e-02 -3.94702e-01
       H -6.73584e-01 -7.44997e-01  6.16552e-01
       L -2.90098e+00  1.07809e+00 -5.89178e-01
       L -1.55496e-01  2.55083e+00 -9.92456e-02
6
# CELL(abcABC):  459.05226   459.05226   459.05226    90.00000    90.00000    90.00000  Step:          28  Bead:       0 x_centroid{angstrom}  cell{atomic_unit}
       C -2.22880e-01 -3.89117e-02 -5.47863e-02
       O  8.77356e-01  2.42145e-01 -8.86977e-02
       H -1.77316e+00  2.11602e-02 -3.74446e-01
       H -6.60660e-01 -7.34322e-01  6.16760e-01
       L -2.88354e+00  7.96200e-01 -9.33252e-01
       L -2.60944e-01  2.33891e+00 -3.35599e-01
6
# CELL(abcABC):  459.05226   459.05226   459.05226    90.00000    90.00000    90.00000  Step:          29  Bead:       0 x_centroid{angstrom}  cell{atomic_unit}
       C -2.27988e-01 -3.60367e-02 -6.05977e-02
       O  8.81268e-01  2.41476e-01 -8.55342e-02
       H -1.79038e+00 -9.42891e-03 -3.57113e-01
       H -6.44662e-01 -7.27103e-01  6.18794e-01
       L -2.81194e+00  4.87460e-01 -1.29437e+00
       L -3.56314e-01  2.13244e+00 -5.85493e-01
6
# CELL(abcABC):  459.05226   459.05226   459.05226    90.00000    90.00000    90.00000  Step:          30  Bead:       0 x_centroid{angstrom}  cell{atomic_unit}
       C -2.34471e-01 -3.38705e-02 -6.59897e-02
       O  8.85437e-01  2.41203e-01 -8.26406e-02
       H -1.79844e+00 -3.49439e-02 -3.43262e-01
       H -6.25561e-01 -7.22777e-01  6.23603e-01
       L -2.70922e+00  1.53081e-01 -1.68289e+00
       L -4.13848e-01  1.94973e+00 -8.20429e-01
6
# CELL(abcABC):  459.05226   459.05226   459.05226    90.00000    90.00000    90.00000  Step:          31  Bead:       0 x_centroid{angstrom}  cell{atomic_unit}
       C -2.42471e-01 -3.22693e-02 -7.07154e-02
       O  8.89911e-01  2.41144e-01 -8.02005e-02
       H -1.79640e+00 -5.38754e-02 -3.34270e-01
       H -6.03299e-01 -7.21710e-01  6.32503e-01
       L -2.60979e+00 -1.66331e-01 -2.08703e+00
       L -4.64397e-01  1.75199e+00 -9.92834e-01
6
# CELL(abcABC):  459.05226   459.05226   459.05226    90.00000    90.00000    90.00000  Step:          32  Bead:       0 x_centroid{angstrom}  cell{atomic_unit}
       C -2.51298e-01 -3.11763e-02 -7.46676e-02
       O  8.94344e-01  2.41259e-01 -7.81730e-02
       H -1.78780e+00 -6.61935e-02 -3.31589e-01
       H -5.77180e-01 -7.23928e-01  6.45046e-01
       L -2.42584e+00 -5.25962e-01 -2.48437e+00
       L -4.86147e-01  1.53902e+00 -1.16865e+00
6
# CELL(abcABC):  459.05226   459.05226   459.05226    90.00000    90.00000    90.00000  Step:          33  Bead:       0 x_centroid{angstrom}  cell{atomic_unit}
       C -2.60491e-01 -3.02216e-02 -7.80996e-02
       O  8.98394e-01  2.41339e-01 -7.65323e-02
       H -1.77076e+00 -7.25851e-02 -3.32676e-01
       H -5.49045e-01 -7.29872e-01  6.61280e-01
       L -2.24209e+00 -8.88974e-01 -2.83845e+00
       L -5.10802e-01  1.33427e+00 -1.35382e+00
6
# CELL(abcABC):  459.05226   459.05226   459.05226    90.00000    90.00000    90.00000  Step:          34  Bead:       0 x_centroid{angstrom}  cell{atomic_unit}
       C -2.70262e-01 -2.99801e-02 -8.09137e-02
       O  9.02293e-01  2.41666e-01 -7.53410e-02
       H -1.74535e+00 -7.28900e-02 -3.37128e-01
       H -5.20000e-01 -7.37365e-01  6.80643e-01
       L -2.00803e+00 -1.20761e+00 -3.21090e+00
       L -5.69590e-01  1.15029e+00 -1.51366e+00
6
# CELL(abcABC):  459.05226   459.05226   459.05226    90.00000    90.00000    90.00000  Step:          35  Bead:       0 x_centroid{angstrom}  cell{atomic_unit}
       C -2.80717e-01 -3.04715e-02 -8.32301e-02
       O  9.05922e-01  2.42227e-01 -7.43959e-02
       H -1.70873e+00 -6.65809e-02 -3.45361e-01
       H -4.89745e-01 -7.46456e-01  7.01779e-01
       L -1.77964e+00 -1.49771e+00 -3.60379e+00
       L -6.13739e-01  9.61976e-01 -1.67429e+00
6
# CELL(abcABC):  459.05226   459.05226   459.05226    90.00000    90.00000    90.00000  Step:          36  Bead:       0 x_centroid{angstrom}  cell{atomic_unit}
       C -2.91673e-01 -3.16470e-02 -8.45975e-02
       O  9.09112e-01  2.42968e-01 -7.39590e-02
       H -1.66062e+00 -5.35269e-02 -3.57440e-01
       H -4.58035e-01 -7.57011e-01  7.23480e-01
       L -1.54764e+00 -1.77043e+00 -3.99982e+00
       L -6.82225e-01  7.47432e-01 -1.76256e+00
6
# CELL(abcABC):  459.05226   459.05226   459.05226    90.00000    90.00000    90.00000  Step:          37  Bead:       0 x_centroid{angstrom}  cell{atomic_unit}
       C -3.02702e-01 -3.34621e-02 -8.48761e-02
       O  9.11726e-01  2.43976e-01 -7.40322e-02
       H -1.60063e+00 -3.56916e-02 -3.74328e-01
       H -4.28221e-01 -7.68966e-01  7.45141e-01
       L -1.27319e+00 -2.02918e+00 -4.39597e+00
       L -7.22590e-01  5.56788e-01 -1.90095e+00
6
# CELL(abcABC):  459.05226   459.05226   459.05226    90.00000    90.00000    90.00000  Step:          38  Bead:       0 x_centroid{angstrom}  cell{atomic_unit}
       C -3.13425e-01 -3.63505e-02 -8.42164e-02
       O  9.13555e-01  2.45412e-01 -7.45659e-02
       H -1.53004e+00 -1.21398e-02 -3.94027e-01
       H -4.00215e-01 -7.80687e-01  7.65682e-01
       L -1.01732e+00 -2.26111e+00 -4.71293e+00
       L -6.99980e-01  3.92929e-01 -2.00997e+00
6
# CELL(abcABC):  459.05226   459.05226   459.05226    90.00000    90.00000    90.00000  Step:          39  Bead:       0 x_centroid{angstrom}  cell{atomic_unit}
       C -3.23609e-01 -4.00160e-02 -8.26704e-02
       O  9.14581e-01  2.47126e-01 -7.53753e-02
       H -1.45080e+00  1.59538e-02 -4.17096e-01
       H -3.74589e-01 -7.92095e-01  7.83396e-01
       L -7.24047e-01 -2.49418e+00 -5.01412e+00
       L -6.25946e-01  2.32459e-01 -2.11172e+00
6
# CELL(abcABC):  459.05226   459.05226   459.05226    90.00000    90.00000    90.00000  Step:          40  Bead:       0 x_centroid{angstrom}  cell{atomic_unit}
       C -3.32882e-01 -4.43923e-02 -8.01654e-02
       O  9.14620e-01  2.48968e-01 -7.66157e-02
       H -1.36301e+00  4.83942e-02 -4.41283e-01
       H -3.52735e-01 -8.01423e-01  7.97640e-01
       L -4.15964e-01 -2.68589e+00 -5.30017e+00
       L -5.12698e-01  6.61557e-02 -2.22488e+00
6
# CELL(abcABC):  459.05226   459.05226   459.05226    90.00000    90.00000    90.00000  Step:          41  Bead:       0 x_centroid{angstrom}  cell{atomic_unit}
       C -3.40648e-01 -4.91260e-02 -7.62928e-02
       O  9.13632e-01  2.50714e-01 -7.84882e-02
       H -1.27278e+00  8.55094e-02 -4.68368e-01
       H -3.34969e-01 -8.09669e-01  8.08496e-01
       L -6.32093e-02 -2.80920e+00 -5.53481e+00
       L -4.32082e-01 -1.40933e-01 -2.34635e+00
6
# CELL(abcABC):  459.05226   459.05226   459.05226    90.00000    90.00000    90.00000  Step:          42  Bead:       0 x_centroid{angstrom}  cell{atomic_unit}
       C -3.46276e-01 -5.45027e-02 -7.08216e-02
       O  9.11572e-01  2.52619e-01 -8.08695e-02
       H -1.18707e+00  1.25799e-01 -5.02292e-01
       H -3.21117e-01 -8.15958e-01  8.15204e-01
       L  2.94469e-01 -2.88507e+00 -5.72011e+00
       L -4.02027e-01 -3.74128e-01 -2.49374e+00
6
# CELL(abcABC):  459.05226   459.05226   459.05226    90.00000    90.00000    90.00000  Step:          43  Bead:       0 x_centroid{angstrom}  cell{atomic_unit}
       C -3.49003e-01 -6.04242e-02 -6.36582e-02
       O  9.08600e-01  2.54389e-01 -8.36166e-02
       H -1.11405e+00  1.72040e-01 -5.45757e-01
       H -3.14718e-01 -8.19587e-01  8.17041e-01
       L  6.89047e-01 -2.91903e+00 -5.84150e+00
       L -3.54948e-01 -5.96867e-01 -2.60285e+00
6
# CELL(abcABC):  459.05226   459.05226   459.05226    90.00000    90.00000    90.00000  Step:          44  Bead:       0 x_centroid{angstrom}  cell{atomic_unit}
       C -3.48696e-01 -6.67394e-02 -5.46221e-02
       O  9.04816e-01  2.55909e-01 -8.67792e-02
       H -1.05775e+00  2.24271e-01 -6.00284e-01
       H -3.14853e-01 -8.20592e-01  8.14206e-01
       L  1.07398e+00 -2.95657e+00 -5.96596e+00
       L -3.11947e-01 -7.74554e-01 -2.68400e+00
6
# CELL(abcABC):  459.05226   459.05226   459.05226    90.00000    90.00000    90.00000  Step:          45  Bead:       0 x_centroid{angstrom}  cell{atomic_unit}
       C -3.45009e-01 -7.35810e-02 -4.38820e-02
       O  8.99890e-01  2.57236e-01 -9.02297e-02
       H -1.01617e+00  2.83575e-01 -6.66888e-01
       H -3.22377e-01 -8.19318e-01  8.07668e-01
       L  1.43270e+00 -3.02360e+00 -6.04483e+00
       L -2.91915e-01 -8.96784e-01 -2.72662e+00
6
# CELL(abcABC):  459.05226   459.05226   459.05226    90.00000    90.00000    90.00000  Step:          46  Bead:       0 x_centroid{angstrom}  cell{atomic_unit}
       C -3.38702e-01 -8.05233e-02 -3.21736e-02
       O  8.94002e-01  2.58315e-01 -9.38447e-02
       H -9.84734e-01  3.46143e-01 -7.40249e-01
       H -3.35714e-01 -8.16221e-01  7.98873e-01
       L  1.81921e+00 -3.08917e+00 -6.04197e+00
       L -2.86654e-01 -9.57733e-01 -2.69237e+00
6
# CELL(abcABC):  459.05226   459.05226   459.05226    90.00000    90.00000    90.00000  Step:          47  Bead:       0 x_centroid{angstrom}  cell{atomic_unit}
       C -3.30783e-01 -8.73692e-02 -2.05013e-02
       O  8.87580e-01  2.59268e-01 -9.72633e-02
       H -9.58250e-01  4.08782e-01 -8.15000e-01
       H -3.54842e-01 -8.12375e-01  7.88709e-01
       L  2.23876e+00 -3.17228e+00 -5.95887e+00
       L -3.07972e-01 -9.47800e-01 -2.60796e+00
6
# CELL(abcABC):  459.05226   459.05226   459.05226    90.00000    90.00000    90.00000  Step:          48  Bead:       0 x_centroid{angstrom}  cell{atomic_unit}
       C -3.21272e-01 -9.36821e-02 -9.24558e-03
       O  8.80439e-01  2.59996e-01 -1.00743e-01
       H -9.32552e-01  4.68078e-01 -8.83744e-01
       H -3.80698e-01 -8.07957e-01  7.78476e-01
       L  2.64246e+00 -3.20564e+00 -5.88084e+00
       L -3.97863e-01 -1.00391e+00 -2.51395e+00
6
# CELL(abcABC):  459.05226   459.05226   459.05226    90.00000    90.00000    90.00000  Step:          49  Bead:       0 x_centroid{angstrom}  cell{atomic_unit}
       C -3.10265e-01 -9.90306e-02  1.09291e-03
       O  8.72538e-01  2.60600e-01 -1.04003e-01
       H -9.07329e-01  5.19774e-01 -9.45533e-01
       H -4.11811e-01 -8.05507e-01  7.68681e-01
       L  3.02520e+00 -3.18587e+00 -5.75639e+00
       L -5.09790e-01 -1.02405e+00 -2.40053e+00
6
# CELL(abcABC):  459.05226   459.05226   459.05226    90.00000    90.00000    90.00000  Step:          50  Bead:       0 x_centroid{angstrom}  cell{atomic_unit}
       C -2.98271e-01 -1.02974e-01  1.02621e-02
       O  8.64232e-01  2.60779e-01 -1.07216e-01
       H -8.81639e-01  5.64462e-01 -9.96811e-01
       H -4.48724e-01 -8.06093e-01  7.61545e-01
       L  3.38902e+00 -3.10558e+00 -5.58343e+00
       L -6.10369e-01 -1.00674e+00 -2.29177e+00
6
# CELL(abcABC):  459.05226   459.05226   459.05226    90.00000    90.00000    90.00000  Step:          51  Bead:       0 x_centroid{angstrom}  cell{atomic_unit}
       C -2.85249e-01 -1.05757e-01  1.79332e-02
       O  8.55512e-01  2.60752e-01 -1.10135e-01
       H -8.56483e-01  6.01207e-01 -1.03765e+00
       H -4.90782e-01 -8.09301e-01  7.57126e-01
       L  3.77240e+00 -2.99993e+00 -5.36625e+00
       L -7.12005e-01 -1.02597e+00 -2.16563e+00
6
# CELL(abcABC):  459.05226   459.05226   459.05226    90.00000    90.00000    90.00000  Step:          52  Bead:       0 x_centroid{angstrom}  cell{atomic_unit}
       C -2.71683e-01 -1.07517e-01  2.42172e-02
       O  8.46841e-01  2.60603e-01 -1.12839e-01
       H -8.33951e-01  6.29998e-01 -1.06869e+00
       H -5.37440e-01 -8.14846e-01  7.56009e-01
       L  4.09905e+00 -2.79347e+00 -5.15507e+00
       L -8.24554e-01 -1.06822e+00 -2.03865e+00
6
# CELL(abcABC):  459.05226   459.05226   459.05226    90.00000    90.00000    90.00000  Step:          53  Bead:       0 x_centroid{angstrom}  cell{atomic_unit}
       C -2.58007e-01 -1.08273e-01  2.90335e-02
       O  8.38383e-01  2.60295e-01 -1.15167e-01
       H -8.12712e-01  6.51209e-01 -1.08982e+00
       H -5.87523e-01 -8.22237e-01  7.56495e-01
       L  4.41735e+00 -2.58102e+00 -4.95112e+00
       L -9.14931e-01 -1.13314e+00 -1.85043e+00
6
# CELL(abcABC):  459.05226   459.05226   459.05226    90.00000    90.00000    90.00000  Step:          54  Bead:       0 x_centroid{angstrom}  cell{atomic_unit}
       C -2.44545e-01 -1.07911e-01  3.26367e-02
       O  8.30429e-01  2.59719e-01 -1.17339e-01
       H -7.94227e-01  6.63332e-01 -1.10020e+00
       H -6.40288e-01 -8.29627e-01  7.58207e-01
       L  4.64576e+00 -2.39802e+00 -4.69575e+00
       L -9.15639e-01 -1.12429e+00 -1.70864e+00
6
# CELL(abcABC):  459.05226   459.05226   459.05226    90.00000    90.00000    90.00000  Step:          55  Bead:       0 x_centroid{angstrom}  cell{atomic_unit}
       C -2.32282e-01 -1.06791e-01  3.51559e-02
       O  8.23521e-01  2.59107e-01 -1.19181e-01
       H -7.76959e-01  6.67090e-01 -1.10058e+00
       H -6.94125e-01 -8.37122e-01  7.57544e-01
       L  4.83804e+00 -2.20838e+00 -4.38190e+00
       L -9.17908e-01 -1.14013e+00 -1.55667e+00
6
# CELL(abcABC):  459.05226   459.05226   459.05226    90.00000    90.00000    90.00000  Step:          56  Bead:       0 x_centroid{angstrom}  cell{atomic_unit}
       C -2.21382e-01 -1.05018e-01  3.68252e-02
       O  8.17702e-01  2.58217e-01 -1.20716e-01
       H -7.63401e-01  6.63600e-01 -1.09298e+00
       H -7.45322e-01 -8.40771e-01  7.54113e-01
       L  5.00497e+00 -1.99103e+00 -3.95499e+00
       L -8.80962e-01 -1.10819e+00 -1.41482e+00
6
# CELL(abcABC):  459.05226   459.05226   459.05226    90.00000    90.00000    90.00000  Step:          57  Bead:       0 x_centroid{angstrom}  cell{atomic_unit}
       C -2.12373e-01 -1.02985e-01  3.72930e-02
       O  8.13405e-01  2.57427e-01 -1.21742e-01
       H -7.53942e-01  6.52554e-01 -1.07718e+00
       H -7.94029e-01 -8.41509e-01  7.48712e-01
       L  5.12871e+00 -1.76762e+00 -3.45886e+00
       L -8.23744e-01 -1.12500e+00 -1.33757e+00
6
# CELL(abcABC):  459.05226   459.05226   459.05226    90.00000    90.00000    90.00000  Step:          58  Bead:       0 x_centroid{angstrom}  cell{atomic_unit}
       C -2.05584e-01 -1.01150e-01  3.69852e-02
       O  8.10746e-01  2.56897e-01 -1.22457e-01
       H -7.47614e-01  6.34915e-01 -1.05420e+00
       H -8.39136e-01 -8.37494e-01  7.40431e-01
       L  5.18036e+00 -1.49462e+00 -2.93931e+00
       L -6.90608e-01 -1.10072e+00 -1.25411e+00
6
# CELL(abcABC):  459.05226   459.05226   459.05226    90.00000    90.00000    90.00000  Step:          59  Bead:       0 x_centroid{angstrom}  cell{atomic_unit}
       C -2.01422e-01 -9.93948e-02  3.60081e-02
       O  8.10021e-01  2.56669e-01 -1.22943e-01
       H -7.45437e-01  6.10971e-01 -1.02348e+00
       H -8.79466e-01 -8.30968e-01  7.28698e-01
       L  5.17117e+00 -1.22127e+00 -2.37557e+00
       L -5.51566e-01 -1.14872e+00 -1.15460e+00
6
# CELL(abcABC):  459.05226   459.05226   459.05226    90.00000    90.00000    90.00000  Step:          60  Bead:       0 x_centroid{angstrom}  cell{atomic_unit}
       C -2.00256e-01 -9.79582e-02  3.43279e-02
       O  8.11338e-01  2.56830e-01 -1.23154e-01
       H -7.45977e-01  5.79667e-01 -9.84495e-01
       H -9.13801e-01 -8.19518e-01  7.12698e-01
       L  5.10023e+00 -9.09431e-01 -1.76656e+00
       L -3.67945e-01 -1.13493e+00 -1.05037e+00
6
# CELL(abcABC):  459.05226   459.05226   459.05226    90.00000    90.00000    90.00000  Step:          61  Bead:       0 x_centroid{angstrom}  cell{atomic_unit}
       C -2.02170e-01 -9.67409e-02  3.14909e-02
       O  8.14857e-01  2.57241e-01 -1.22811e-01
       H -7.50188e-01  5.43001e-01 -9.38029e-01
       H -9.42623e-01 -8.04107e-01  6.94244e-01
       L  4.91230e+00 -5.29912e-01 -1.18035e+00
       L -1.88781e-01 -1.08655e+00 -1.00429e+00
6
# CELL(abcABC):  459.05226   459.05226   459.05226    90.00000    90.00000    90.00000  Step:          62  Bead:       0 x_centroid{angstrom}  cell{atomic_unit}
       C -2.07090e-01 -9.56562e-02  2.79369e-02
       O  8.20434e-01  2.57948e-01 -1.22179e-01
       H -7.58119e-01  5.00995e-01 -8.85692e-01
       H -9.64563e-01 -7.86485e-01  6.73901e-01
       L  4.69613e+00 -1.28464e-01 -6.14155e-01
       L -2.71602e-02 -1.04450e+00 -9.67270e-01
6
# CELL(abcABC):  459.05226   459.05226   459.05226    90.00000    90.00000    90.00000  Step:          63  Bead:       0 x_centroid{angstrom}  cell{atomic_unit}
       C -2.14959e-01 -9.46294e-02  2.40450e-02
       O  8.28034e-01  2.58905e-01 -1.21507e-01
       H -7.70773e-01  4.53014e-01 -8.27129e-01
       H -9.78702e-01 -7.66182e-01  6.50698e-01
       L  4.39897e+00  2.74142e-01 -1.01659e-02
       L  1.04048e-01 -1.00058e+00 -9.19352e-01
6
# CELL(abcABC):  459.05226   459.05226   459.05226    90.00000    90.00000    90.00000  Step:          64  Bead:       0 x_centroid{angstrom}  cell{atomic_unit}
       C -2.25355e-01 -9.35411e-02  1.95959e-02
       O  8.37268e-01  2.59870e-01 -1.20536e-01
       H -7.86549e-01  4.01805e-01 -7.66519e-01
       H -9.85473e-01 -7.43498e-01  6.27342e-01
       L  4.05687e+00  6.43491e-01  5.55575e-01
       L  1.99854e-01 -9.32379e-01 -8.55454e-01
6
# CELL(abcABC):  459.05226   459.05226   459.05226    90.00000    90.00000    90.00000  Step:          65  Bead:       0 x_centroid{angstrom}  cell{atomic_unit}
       C -2.37412e-01 -9.28606e-02  1.42905e-02
       O  8.47668e-01  2.61177e-01 -1.18955e-01
       H -8.08081e-01  3.49259e-01 -7.06573e-01
       H -9.85202e-01 -7.20063e-01  6.05185e-01
       L  3.66871e+00  1.00683e+00  1.08605e+00
       L  3.01122e-01 -8.35545e-01 -7.67135e-01
6
# CELL(abcABC):  459.05226   459.05226   459.05226    90.00000    90.00000    90.00000  Step:          66  Bead:       0 x_centroid{angstrom}  cell{atomic_unit}
       C -2.50688e-01 -9.22796e-02  8.84103e-03