6
# CELL(abcABC):  459.05226   459.05226   459.05226    90.00000    90.00000    90.00000  Step:           0  Bead:       0 x_centroid{angstrom}  cell{atomic_unit}
       C -3.39887e-01 -1.13437e-01  8.06659e-02
       O  8.43483e-01  2.62672e-01 -1.81512e-01
       H -7.35799e-02  8.16467e-01 -6.61432e-01
       H -4.30016e-01 -9.65701e-01  7.62278e-01
       L  0.00000e+00  0.00000e+00  0.00000e+00
       L  0.00000e+00  0.00000e+00  0.00000e+00
6
# CELL(abcABC):  459.05226   459.05226   459.05226    90.00000    90.00000    90.00000  Step:           1  Bead:       0 x_centroid{angstrom}  cell{atomic_unit}
       C -3.38667e-01 -1.16976e-01  8.19281e-02
       O  8.43221e-01  2.64974e-01 -1.82623e-01
       H -7.88267e-02  8.13870e-01 -6.64967e-01
       H -4.35019e-01 -9.57367e-01  7.68461e-01
       L -3.47349e-01  8.37109e-02  7.50464e-04
       L  1.19655e-01 -3.11703e-01 -1.08250e-01
6
# CELL(abcABC):  459.05226   459.05226   459.05226    90.00000    90.00000    90.00000  Step:           2  Bead:       0 x_centroid{angstrom}  cell{atomic_unit}
       C -3.37241e-01 -1.20478e-01  8.31615e-02
       O  8.42875e-01  2.67225e-01 -1.83692e-01
       H -8.45598e-02  8.12139e-01 -6.68428e-01
       H -4.40654e-01 -9.49518e-01  7.74319e-01
       L -7.15168e-01  1.57295e-01 -1.04056e-01
       L  2.61136e-01 -5.79804e-01 -2.36287e-01
6
# CELL(abcABC):  459.05226   459.05226   459.05226    90.00000    90.00000    90.00000  Step:           3  Bead:       0 x_centroid{angstrom}  cell{atomic_unit}
       C -3.36020e-01 -1.23944e-01  8.40308e-02
       O  8.42722e-01  2.69431e-01 -1.84691e-01
       H -9.07022e-02  8.10445e-01 -6.70724e-01
       H -4.46521e-01 -9.41443e-01  7.82278e-01
       L -1.06682e+00  2.83613e-01 -2.30263e-01
       L  3.90212e-01 -8.80644e-01 -4.06904e-01
6
# CELL(abcABC):  459.05226   459.05226   459.05226    90.00000    90.00000    90.00000  Step:           4  Bead:       0 x_centroid{angstrom}  cell{atomic_unit}
       C -3.34596e-01 -1.27188e-01  8.46305e-02
       O  8.42376e-01  2.71664e-01 -1.85565e-01
       H -9.69929e-02  8.07116e-01 -6.72378e-01
       H -4.51566e-01 -9.34841e-01  7.90822e-01
       L -1.42855e+00  4.32850e-01 -3.51145e-01
       L  4.97266e-01 -1.15835e+00 -5.95215e-01
6
# CELL(abcABC):  459.05226   459.05226   459.05226    90.00000    90.00000    90.00000  Step:           5  Bead:       0 x_centroid{angstrom}  cell{atomic_unit}
       C -3.33228e-01 -1.30089e-01  8.50665e-02
       O  8.42098e-01  2.73798e-01 -1.86355e-01
       H -1.04004e-01  8.02825e-01 -6.74939e-01
       H -4.56297e-01 -9.29784e-01  8.00884e-01
       L -1.82067e+00  5.83055e-01 -4.76835e-01
       L  6.12487e-01 -1.43065e+00 -7.62679e-01
6
# CELL(abcABC):  459.05226   459.05226   459.05226    90.00000    90.00000    90.00000  Step:           6  Bead:       0 x_centroid{angstrom}  cell{atomic_unit}
       C -3.32012e-01 -1.32605e-01  8.50723e-02
       O  8.41943e-01  2.75671e-01 -1.86941e-01
       H -1.11847e-01  7.98338e-01 -6.75981e-01
       H -4.60316e-01 -9.25003e-01  8.11357e-01
       L -2.24854e+00  7.63355e-01 -6.05349e-01
       L  7.53478e-01 -1.70719e+00 -9.95907e-01
6
# CELL(abcABC):  459.05226   459.05226   459.05226    90.00000    90.00000    90.00000  Step:           7  Bead:       0 x_centroid{angstrom}  cell{atomic_unit}
       C -3.30969e-01 -1.34977e-01  8.49973e-02
       O  8.41940e-01  2.77488e-01 -1.87497e-01
       H -1.21469e-01  7.92794e-01 -6.76851e-01
       H -4.62900e-01 -9.20012e-01  8.22138e-01
       L -2.67380e+00  9.47153e-01 -6.94903e-01
       L  8.44887e-01 -1.91893e+00 -1.26095e+00
6
# CELL(abcABC):  459.05226   459.05226   459.05226    90.00000    90.00000    90.00000  Step:           8  Bead:       0 x_centroid{angstrom}  cell{atomic_unit}
       C -3.29969e-01 -1.37261e-01  8.48227e-02
       O  8.42069e-01  2.79321e-01 -1.88007e-01
       H -1.32516e-01  7.86147e-01 -6.77882e-01
       H -4.65669e-01 -9.15217e-01  8.33546e-01
       L -3.08291e+00  1.08948e+00 -7.80372e-01
       L  9.61721e-01 -2.11153e+00 -1.53091e+00
6
# CELL(abcABC):  459.05226   459.05226   459.05226    90.00000    90.00000    90.00000  Step:           9  Bead:       0 x_centroid{angstrom}  cell{atomic_unit}
       C -3.29086e-01 -1.39340e-01  8.45311e-02
       O  8.42307e-01  2.81110e-01 -1.88503e-01
       H -1.44534e-01  7.79465e-01 -6.78362e-01
       H -4.67793e-01 -9.12152e-01  8.45550e-01
       L -3.42969e+00  1.28779e+00 -8.17462e-01
       L  1.03140e+00 -2.33371e+00 -1.81222e+00
6
# CELL(abcABC):  459.05226   459.05226   459.05226    90.00000    90.00000    90.00000  Step:          10  Bead:       0 x_centroid{angstrom}  cell{atomic_unit}
       C -3.27982e-01 -1.41254e-01  8.42066e-02
       O  8.42415e-01  2.82899e-01 -1.89032e-01
       H -1.58158e-01  7.71184e-01 -6.78706e-01
       H -4.68878e-01 -9.09475e-01  8.58281e-01
       L -3.76446e+00  1.49828e+00 -8.14402e-01
       L  1.05722e+00 -2.52302e+00 -2.04627e+00
6
# CELL(abcABC):  459.05226   459.05226   459.05226    90.00000    90.00000    90.00000  Step:          11  Bead:       0 x_centroid{angstrom}  cell{atomic_unit}
       C -3.26710e-01 -1.42440e-01  8.39423e-02
       O  8.42626e-01  2.84268e-01 -1.89453e-01
       H -1.75607e-01  7.61752e-01 -6.80427e-01
       H -4.69787e-01 -9.07657e-01  8.69948e-01
       L -3.98736e+00  1.68818e+00 -7.63904e-01
       L  1.01356e+00 -2.66768e+00 -2.30166e+00
6
# CELL(abcABC):  459.05226   459.05226   459.05226    90.00000    90.00000    90.00000  Step:          12  Bead:       0 x_centroid{angstrom}  cell{atomic_unit}
       C -3.25501e-01 -1.43285e-01  8.36136e-02
       O  8.43097e-01  2.85339e-01 -1.89660e-01
       H -1.97510e-01  7.51220e-01 -6.82460e-01
       H -4.69617e-01 -9.04070e-01  8.79294e-01
       L -4.20027e+00  1.86219e+00 -7.12145e-01
       L  9.66990e-01 -2.81162e+00 -2.55524e+00
6
# CELL(abcABC):  459.05226   459.05226   459.05226    90.00000    90.00000    90.00000  Step:          13  Bead:       0 x_centroid{angstrom}  cell{atomic_unit}
       C -3.23697e-01 -1.43993e-01  8.29659e-02
       O  8.43421e-01  2.86200e-01 -1.89662e-01
       H -2.24531e-01  7.39827e-01 -6.83638e-01
       H -4.69090e-01 -8.97927e-01  8.88327e-01
       L -4.37559e+00  1.96006e+00 -6.09469e-01
       L  8.87376e-01 -2.89617e+00 -2.86310e+00
6
# CELL(abcABC):  459.05226   459.05226   459.05226    90.00000    90.00000    90.00000  Step:          14  Bead:       0 x_centroid{angstrom}  cell{atomic_unit}
       C -3.21365e-01 -1.44298e-01  8.21651e-02
       O  8.43769e-01  2.86759e-01 -1.89557e-01
       H -2.58674e-01  7.27606e-01 -6.83868e-01
       H -4.68167e-01 -8.90940e-01  8.96524e-01
       L -4.49258e+00  2.02331e+00 -4.75985e-01
       L  8.17156e-01 -2.96024e+00 -3.15827e+00
6
# CELL(abcABC):  459.05226   459.05226   459.05226    90.00000    90.00000    90.00000  Step:          15  Bead:       0 x_centroid{angstrom}  cell{atomic_unit}
       C -3.18225e-01 -1.44235e-01  8.13858e-02
       O  8.44096e-01  2.87060e-01 -1.89417e-01
       H -3.01771e-01  7.14565e-01 -6.82529e-01
       H -4.67599e-01 -8.83418e-01  9.02251e-01
       L -4.53936e+00  2.09192e+00 -2.36456e-01
       L  7.17145e-01 -3.04822e+00 -3.40484e+00
6
# CELL(abcABC):  459.05226   459.05226   459.05226    90.00000    90.00000    90.00000  Step:          16  Bead:       0 x_centroid{angstrom}  cell{atomic_unit}
       C -3.14182e-01 -1.43410e-01  8.03165e-02
       O  8.44548e-01  2.86931e-01 -1.88975e-01
       H -3.56373e-01  6.99542e-01 -6.79814e-01
       H -4.68314e-01 -8.76157e-01  9.05295e-01
       L -4.53735e+00  2.15766e+00 -4.45849e-02
       L  6.35715e-01 -3.14557e+00 -3.64862e+00
6
# CELL(abcABC):  459.05226   459.05226   459.05226    90.00000    90.00000    90.00000  Step:          17  Bead:       0 x_centroid{angstrom}  cell{atomic_unit}
       C -3.09520e-01 -1.41675e-01  7.89761e-02
       O  8.45316e-01  2.86278e-01 -1.88290e-01
       H -4.23042e-01  6.81109e-01 -6.76530e-01
       H -4.69370e-01 -8.68019e-01  9.07119e-01
       L -4.46664e+00  2.22733e+00  1.29467e-01
       L  5.64241e-01 -3.24545e+00 -3.84241e+00
6
# CELL(abcABC):  459.05226   459.05226   459.05226    90.00000    90.00000    90.00000  Step:          18  Bead:       0 x_centroid{angstrom}  cell{atomic_unit}
       C -3.04155e-01 -1.39100e-01  7.72549e-02
       O  8.46288e-01  2.85068e-01 -1.87128e-01
       H -5.01906e-01  6.60010e-01 -6.72544e-01
       H -4.69843e-01 -8.58395e-01  9.05222e-01
       L -4.41381e+00  2.27529e+00  2.64899e-01
       L  4.67252e-01 -3.30795e+00 -4.01872e+00
6
# CELL(abcABC):  459.05226   459.05226   459.05226    90.00000    90.00000    90.00000  Step:          19  Bead:       0 x_centroid{angstrom}  cell{atomic_unit}
       C -2.97729e-01 -1.35886e-01  7.53735e-02
       O  8.47252e-01  2.83601e-01 -1.85860e-01
       H -5.91449e-01  6.35132e-01 -6.66427e-01
       H -4.72165e-01 -8.48509e-01  9.01401e-01
       L -4.34755e+00  2.30723e+00  3.66969e-01
       L  3.82907e-01 -3.35109e+00 -4.13904e+00
6
# CELL(abcABC):  459.05226   459.05226   459.05226    90.00000    90.00000    90.00000  Step:          20  Bead:       0 x_centroid{angstrom}  cell{atomic_unit}
       C -2.90313e-01 -1.31825e-01  7.33049e-02
       O  8.48313e-01  2.81735e-01 -1.84458e-01
       H -6.92546e-01  6.05923e-01 -6.57805e-01
       H -4.76287e-01 -8.38078e-01  8.95165e-01
       L -4.21657e+00  2.31471e+00  4.90107e-01
       L  2.59873e-01 -3.35734e+00 -4.25074e+00
6
# CELL(abcABC):  459.05226   459.05226   459.05226    90.00000    90.00000    90.00000  Step:          21  Bead:       0 x_centroid{angstrom}  cell{atomic_unit}
       C -2.82231e-01 -1.26906e-01  7.07035e-02
       O  8.49413e-01  2.79602e-01 -1.82821e-01
       H -8.01906e-01  5.71216e-01 -6.45688e-01
       H -4.80778e-01 -8.28149e-01  8.88038e-01
       L -4.01749e+00  2.29807e+00  6.54236e-01
       L  2.16667e-01 -3.30723e+00 -4.34975e+00
6
# CELL(abcABC):  459.05226   459.05226   459.05226    90.00000    90.00000    90.00000  Step:          22  Bead:       0 x_centroid{angstrom}  cell{atomic_unit}
       C -2.73186e-01 -1.21011e-01  6.75439e-02
       O  8.50313e-01  2.77064e-01 -1.80856e-01
       H -9.18365e-01  5.31466e-01 -6.30042e-01
       H -4.86507e-01 -8.18406e-01  8.78820e-01
       L -3.75797e+00  2.29607e+00  8.08722e-01
       L  1.77744e-01 -3.19695e+00 -4.44882e+00
6
# CELL(abcABC):  459.05226   459.05226   459.05226    90.00000    90.00000    90.00000  Step:          23  Bead:       0 x_centroid{angstrom}  cell{atomic_unit}
       C -2.63653e-01 -1.14032e-01  6.40643e-02
       O  8.51055e-01  2.73956e-01 -1.78808e-01
       H -1.03787e+00  4.85846e-01 -6.10941e-01
       H -4.92475e-01 -8.06655e-01  8.68609e-01
       L -3.51853e+00  2.24839e+00  9.55064e-01
       L  1.11120e-01 -3.09930e+00 -4.50347e+00
6
# CELL(abcABC):  459.05226   459.05226   459.05226    90.00000    90.00000    90.00000  Step:          24  Bead:       0 x_centroid{angstrom}  cell{atomic_unit}
       C -2.54233e-01 -1.06206e-01  5.99282e-02
       O  8.51776e-01  2.70608e-01 -1.76507e-01
       H -1.15529e+00  4.34857e-01 -5.86329e-01
       H -4.98869e-01 -7.95837e-01  8.56707e-01
       L -3.23565e+00  2.22652e+00  1.11827e+00
       L  4.45520e-02 -2.97506e+00 -4.57033e+00
6
# CELL(abcABC):  459.05226   459.05226   459.05226    90.00000    90.00000    90.00000  Step:          25  Bead:       0 x_centroid{angstrom}  cell{atomic_unit}
       C -2.45194e-01 -9.75682e-02  5.53924e-02
       O  8.52439e-01  2.67051e-01 -1.74112e-01
       H -1.26666e+00  3.78932e-01 -5.57394e-01
       H -5.05875e-01 -7.86439e-01  8.43779e-01
       L -2.91430e+00  2.17524e+00  1.20604e+00
       L -3.68087e-03 -2.79791e+00 -4.58774e+00
6
# CELL(abcABC):  459.05226   459.05226   459.05226    90.00000    90.00000    90.00000  Step:          26  Bead:       0 x_centroid{angstrom}  cell{atomic_unit}
       C -2.36908e-01 -8.84093e-02  5.02917e-02
       O  8.53204e-01  2.63418e-01 -1.71473e-01
       H -1.37097e+00  3.19890e-01 -5.25636e-01
       H -5.12564e-01 -7.78911e-01  8.30875e-01
       L -2.62094e+00  2.05257e+00  1.28027e+00
       L -7.13774e-02 -2.60474e+00 -4.59766e+00
6
# CELL(abcABC):  459.05226   459.05226   459.05226    90.00000    90.00000    90.00000  Step:          27  Bead:       0 x_centroid{angstrom}  cell{atomic_unit}
       C -2.29483e-01 -7.88985e-02  4.51984e-02
       O  8.53953e-01  2.59679e-01 -1.69056e-01
       H -1.46576e+00  2.59079e-01 -4.90605e-01
       H -5.18266e-01 -7.72136e-01  8.18081e-01
       L -2.32004e+00  1.92359e+00  1.40466e+00
       L -1.33440e-01 -2.37062e+00 -4.56896e+00
6
# CELL(abcABC):  459.05226   459.05226   459.05226    90.00000    90.00000    90.00000  Step:          28  Bead:       0 x_centroid{angstrom}  cell{atomic_unit}
       C -2.23343e-01 -6.93502e-02  3.98782e-02
       O  8.54979e-01  2.56027e-01 -1.66676e-01
       H -1.54915e+00  1.97828e-01 -4.53921e-01
       H -5.24489e-01 -7.66769e-01  8.06911e-01
       L -1.94800e+00  1.82491e+00  1.51721e+00
       L -2.10774e-01 -2.11907e+00 -4.50133e+00
6
# CELL(abcABC):  459.05226   459.05226   459.05226    90.00000    90.00000    90.00000  Step:          29  Bead:       0 x_centroid{angstrom}  cell{atomic_unit}
       C -2.18474e-01 -5.99265e-02  3.46461e-02
       O  8.56193e-01  2.52448e-01 -1.64360e-01
       H -1.62170e+00  1.37129e-01 -4.16813e-01
       H -5.29395e-01 -7.61664e-01  7.95300e-01
       L -1.55823e+00  1.73001e+00  1.60021e+00
       L -2.98382e-01 -1.82909e+00 -4.42777e+00
6
# CELL(abcABC):  459.05226   459.05226   459.05226    90.00000    90.00000    90.00000  Step:          30  Bead:       0 x_centroid{angstrom}  cell{atomic_unit}
       C -2.15512e-01 -5.07243e-02  2.96690e-02
       O  8.57863e-01  2.48974e-01 -1.62335e-01
       H -1.68279e+00  7.90573e-02 -3.80863e-01
       H -5.30285e-01 -7.58198e-01  7.86428e-01
       L -1.18710e+00  1.60099e+00  1.65012e+00
       L -3.50419e-01 -1.51172e+00 -4.29804e+00
6
# CELL(abcABC):  459.05226   459.05226   459.05226    90.00000    90.00000    90.00000  Step:          31  Bead:       0 x_centroid{angstrom}  cell{atomic_unit}
       C -2.14059e-01 -4.23656e-02  2.50277e-02
       O  8.59829e-01  2.46021e-01 -1.60620e-01
       H -1.73378e+00  2.32966e-02 -3.45539e-01
       H -5.28036e-01 -7.55296e-01  7.79086e-01
       L -7.88393e-01  1.46214e+00  1.67903e+00
       L -3.66424e-01 -1.15818e+00 -4.15531e+00
6
# CELL(abcABC):  459.05226   459.05226   459.05226    90.00000    90.00000    90.00000  Step:          32  Bead:       0 x_centroid{angstrom}  cell{atomic_unit}
       C -2.14219e-01 -3.46992e-02  2.09338e-02
       O  8.62256e-01  2.43476e-01 -1.59388e-01
       H -1.77540e+00 -3.03403e-02 -3.11439e-01
       H -5.23242e-01 -7.52698e-01  7.74100e-01
       L -3.84891e-01  1.28005e+00  1.76584e+00
       L -3.76105e-01 -8.05396e-01 -4.02162e+00
6
# CELL(abcABC):  459.05226   459.05226   459.05226    90.00000    90.00000    90.00000  Step:          33  Bead:       0 x_centroid{angstrom}  cell{atomic_unit}
       C -2.15861e-01 -2.78796e-02  1.75179e-02
       O  8.64991e-01  2.41223e-01 -1.58531e-01
       H -1.80654e+00 -7.92799e-02 -2.80572e-01
       H -5.16193e-01 -7.49440e-01  7.70191e-01
       L  5.65371e-02  1.16765e+00  1.83667e+00
       L -3.63612e-01 -3.80482e-01 -3.84693e+00
6
# CELL(abcABC):  459.05226   459.05226   459.05226    90.00000    90.00000    90.00000  Step:          34  Bead:       0 x_centroid{angstrom}  cell{atomic_unit}
       C -2.19267e-01 -2.20700e-02  1.48506e-02
       O  8.68329e-01  2.39360e-01 -1.58127e-01
       H -1.82875e+00 -1.22645e-01 -2.53332e-01
       H -5.06630e-01 -7.45845e-01  7.68155e-01
       L  4.75181e-01  1.03634e+00  1.98068e+00
       L -3.02004e-01 -1.13851e-02 -3.65981e+00
6
# CELL(abcABC):  459.05226   459.05226   459.05226    90.00000    90.00000    90.00000  Step:          35  Bead:       0 x_centroid{angstrom}  cell{atomic_unit}
       C -2.24691e-01 -1.71768e-02  1.30150e-02
       O  8.72403e-01  2.37957e-01 -1.58257e-01
       H -1.84225e+00 -1.60995e-01 -2.30371e-01
       H -4.93413e-01 -7.43699e-01  7.68945e-01
       L  9.19582e-01  9.25868e-01  2.13729e+00
       L -3.35054e-01  4.01212e-01 -3.47605e+00
6
# CELL(abcABC):  459.05226   459.05226   459.05226    90.00000    90.00000    90.00000  Step:          36  Bead:       0 x_centroid{angstrom}  cell{atomic_unit}
       C -2.31529e-01 -1.30759e-02  1.19429e-02
       O  8.76830e-01  2.36762e-01 -1.58743e-01
       H -1.84668e+00 -1.93376e-01 -2.12578e-01
       H -4.77978e-01 -7.41366e-01  7.71437e-01
       L  1.32291e+00  7.62924e-01  2.25353e+00
       L -3.28232e-01  8.43114e-01 -3.23890e+00
6
# CELL(abcABC):  459.05226   459.05226   459.05226    90.00000    90.00000    90.00000  Step:          37  Bead:       0 x_centroid{angstrom}  cell{atomic_unit}
       C -2.39320e-01 -9.94156e-03  1.16700e-02
       O  8.81366e-01  2.35921e-01 -1.59623e-01
       H -1.84331e+00 -2.19610e-01 -1.98963e-01
       H -4.60679e-01 -7.39284e-01  7.74804e-01
       L  1.61981e+00  5.82079e-01  2.38855e+00
       L -3.19429e-01  1.28505e+00 -2.92071e+00
6
# CELL(abcABC):  459.05226   459.05226   459.05226    90.00000    90.00000    90.00000  Step:          38  Bead:       0 x_centroid{angstrom}  cell{atomic_unit}
       C -2.48049e-01 -7.95787e-03  1.21026e-02
       O  8.85956e-01  2.35588e-01 -1.61029e-01
       H -1.83115e+00 -2.39332e-01 -1.88605e-01
       H -4.41816e-01 -7.38026e-01  7.81388e-01
       L  1.88496e+00  3.74493e-01  2.46158e+00
       L -3.52776e-01  1.70348e+00 -2.58632e+00
6
# CELL(abcABC):  459.05226   459.05226   459.05226    90.00000    90.00000    90.00000  Step:          39  Bead:       0 x_centroid{angstrom}  cell{atomic_unit}
       C -2.57290e-01 -6.89548e-03  1.32215e-02
       O  8.90377e-01  2.35521e-01 -1.62797e-01
       H -1.81055e+00 -2.52751e-01 -1.83120e-01
       H -4.22578e-01 -7.36318e-01  7.90442e-01
       L  2.08983e+00  1.50396e-01  2.49950e+00
       L -3.52481e-01  2.13581e+00 -2.26481e+00
6
# CELL(abcABC):  459.05226   459.05226   459.05226    90.00000    90.00000    90.00000  Step:          40  Bead:       0 x_centroid{angstrom}  cell{atomic_unit}
       C -2.66774e-01 -6.90279e-03  1.47794e-02
       O  8.94286e-01  2.35868e-01 -1.64872e-01
       H -1.78002e+00 -2.60635e-01 -1.81781e-01
       H -4.02280e-01 -7.33998e-01  8.03292e-01
       L  2.28605e+00 -2.80031e-02  2.47482e+00
       L -3.27461e-01  2.58213e+00 -1.90924e+00
6
# CELL(abcABC):  459.05226   459.05226   459.05226    90.00000    90.00000    90.00000  Step:          41  Bead:       0 x_centroid{angstrom}  cell{atomic_unit}
       C -2.76355e-01 -7.93516e-03  1.67745e-02
       O  8.97680e-01  2.36542e-01 -1.67197e-01
       H -1.74077e+00 -2.63125e-01 -1.85315e-01
       H -3.81317e-01 -7.30058e-01  8.19771e-01
       L  2.42063e+00 -2.25187e-01  2.40186e+00
       L -2.91199e-01  3.05367e+00 -1.49675e+00
6
# CELL(abcABC):  459.05226   459.05226   459.05226    90.00000    90.00000    90.00000  Step:          42  Bead:       0 x_centroid{angstrom}  cell{atomic_unit}
       C -2.85728e-01 -9.90799e-03  1.90979e-02
       O  9.00471e-01  2.37498e-01 -1.69643e-01
       H -1.69348e+00 -2.59741e-01 -1.93488e-01
       H -3.61292e-01 -7.25268e-01  8.38915e-01
       L  2.53420e+00 -4.08879e-01  2.26328e+00
       L -2.58765e-01  3.54522e+00 -1.03855e+00
6
# CELL(abcABC):  459.05226   459.05226   459.05226    90.00000    90.00000    90.00000  Step:          43  Bead:       0 x_centroid{angstrom}  cell{atomic_unit}
       C -2.95058e-01 -1.27187e-02  2.21468e-02
       O  9.02622e-01  2.38658e-01 -1.72538e-01
       H -1.63686e+00 -2.49632e-01 -2.05242e-01
       H -3.40986e-01 -7.20457e-01  8.60154e-01
       L  2.65408e+00 -5.88781e-01  2.08183e+00
       L -2.10100e-01  3.99629e+00 -6.11056e-01
6
# CELL(abcABC):  459.05226   459.05226   459.05226    90.00000    90.00000    90.00000  Step:          44  Bead:       0 x_centroid{angstrom}  cell{atomic_unit}
       C -3.04094e-01 -1.63138e-02  2.55867e-02
       O  9.03894e-01  2.39990e-01 -1.75574e-01
       H -1.56958e+00 -2.33996e-01 -2.20409e-01
       H -3.20861e-01 -7.14538e-01  8.82423e-01
       L  2.73506e+00 -7.85275e-01  1.85451e+00
       L -1.50002e-01  4.45911e+00 -1.99414e-01
6
# CELL(abcABC):  459.05226   459.05226   459.05226    90.00000    90.00000    90.00000  Step:          45  Bead:       0 x_centroid{angstrom}  cell{atomic_unit}
       C -3.12910e-01 -2.09656e-02  2.97996e-02
       O  9.04501e-01  2.41613e-01 -1.79031e-01
       H -1.49334e+00 -2.11241e-01 -2.38504e-01
       H -3.01727e-01 -7.07744e-01  9.05110e-01
       L  2.78456e+00 -1.01364e+00  1.60097e+00
       L -1.01990e-01  4.90340e+00  2.06293e-01
6
# CELL(abcABC):  459.05226   459.05226   459.05226    90.00000    90.00000    90.00000  Step:          46  Bead:       0 x_centroid{angstrom}  cell{atomic_unit}
       C -3.20865e-01 -2.61667e-02  3.45191e-02
       O  9.04055e-01  2.43216e-01 -1.82704e-01
       H -1.40896e+00 -1.82420e-01 -2.59940e-01
       H -2.84291e-01 -7.00122e-01  9.28544e-01
       L  2.86786e+00 -1.23857e+00  1.36915e+00
       L -8.51462e-02  5.30603e+00  5.61164e-01
6
# CELL(abcABC):  459.05226   459.05226   459.05226    90.00000    90.00000    90.00000  Step:          47  Bead:       0 x_centroid{angstrom}  cell{atomic_unit}
       C -3.27604e-01 -3.23063e-02  3.98174e-02
       O  9.02472e-01  2.45036e-01 -1.86455e-01
       H -1.31977e+00 -1.47308e-01 -2.86777e-01
       H -2.68078e-01 -6.91010e-01  9.51763e-01
       L  2.88514e+00 -1.44940e+00  1.12992e+00
       L -5.33392e-02  5.59629e+00  8.29355e-01
6
# CELL(abcABC):  459.05226   459.05226   459.05226    90.00000    90.00000    90.00000  Step:          48  Bead:       0 x_centroid{angstrom}  cell{atomic_unit}
       C -3.32471e-01 -3.90096e-02  4.60556e-02
       O  8.99910e-01  2.46853e-01 -1.90571e-01
       H -1.23340e+00 -1.07274e-01 -3.19268e-01
       H -2.55743e-01 -6.80011e-01  9.75246e-01
       L  2.81322e+00 -1.63408e+00  8.97867e-01
       L -5.34355e-02  5.80006e+00  1.08999e+00
6
# CELL(abcABC):  459.05226   459.05226   459.05226    90.00000    90.00000    90.00000  Step:          49  Bead:       0 x_centroid{angstrom}  cell{atomic_unit}
       C -3.34727e-01 -4.61502e-02  5.33012e-02
       O  8.96319e-01  2.48672e-01 -1.94736e-01
       H -1.15825e+00 -6.52057e-02 -3.61087e-01
       H -2.46944e-01 -6.65932e-01  9.96839e-01
       L  2.73042e+00 -1.71033e+00  6.49341e-01
       L -9.77396e-02  5.97804e+00  1.32640e+00
6
# CELL(abcABC):  459.05226   459.05226   459.05226    90.00000    90.00000    90.00000  Step:          50  Bead:       0 x_centroid{angstrom}  cell{atomic_unit}
       C -3.33952e-01 -5.37890e-02  6.22795e-02
       O  8.91901e-01  2.50630e-01 -1.99207e-01
       H -1.10254e+00 -2.07052e-02 -4.16353e-01
       H -2.41728e-01 -6.50488e-01  1.01618e+00
       L  2.67772e+00 -1.77464e+00  3.20342e-01
       L -1.23377e-01  6.05306e+00  1.50385e+00
6
# CELL(abcABC):  459.05226   459.05226   459.05226    90.00000    90.00000    90.00000  Step:          51  Bead:       0 x_centroid{angstrom}  cell{atomic_unit}
       C -3.29574e-01 -6.17865e-02  7.26980e-02
       O  8.86544e-01  2.52506e-01 -2.03675e-01
       H -1.07037e+00  2.79475e-02 -4.87011e-01
       H -2.40976e-01 -6.33579e-01  1.03375e+00
       L  2.63204e+00 -1.83977e+00 -8.81936e-02
       L -1.60202e-01  6.04318e+00  1.65698e+00
6
# CELL(abcABC):  459.05226   459.05226   459.05226    90.00000    90.00000    90.00000  Step:          52  Bead:       0 x_centroid{angstrom}  cell{atomic_unit}
       C -3.22143e-01 -7.02281e-02  8.42881e-02
       O  8.80288e-01  2.54429e-01 -2.08059e-01
       H -1.05578e+00  7.86592e-02 -5.70406e-01
       H -2.44739e-01 -6.14115e-01  1.04879e+00
       L  2.50122e+00 -1.98521e+00 -5.16307e-01
       L -1.64795e-01  5.99188e+00  1.77774e+00
6
# CELL(abcABC):  459.05226   459.05226   459.05226    90.00000    90.00000    90.00000  Step:          53  Bead:       0 x_centroid{angstrom}  cell{atomic_unit}
       C -3.12441e-01 -7.84079e-02  9.60209e-02
       O  8.73175e-01  2.55979e-01 -2.12106e-01
       H -1.04884e+00  1.31450e-01 -6.58036e-01
       H -2.54331e-01 -5.93946e-01  1.06099e+00
       L  2.37323e+00 -2.11285e+00 -8.79399e-01
       L -1.34814e-01  5.93540e+00  1.87274e+00
6
# CELL(abcABC):  459.05226   459.05226   459.05226    90.00000    90.00000    90.00000  Step:          54  Bead:       0 x_centroid{angstrom}  cell{atomic_unit}
       C -3.01320e-01 -8.64930e-02  1.07602e-01
       O  8.65528e-01  2.57480e-01 -2.16018e-01
       H -1.04430e+00  1.83916e-01 -7.43421e-01
       H -2.69923e-01 -5.73765e-01  1.07063e+00
       L  2.18686e+00 -2.23305e+00 -1.24511e+00
       L -1.05799e-01  5.82549e+00  1.97788e+00
6
# CELL(abcABC):  459.05226   459.05226   459.05226    90.00000    90.00000    90.00000  Step:          55  Bead:       0 x_centroid{angstrom}  cell{atomic_unit}
       C -2.89095e-01 -9.38280e-02  1.18326e-01
       O  8.57286e-01  2.58719e-01 -2.19745e-01
       H -1.03951e+00  2.31877e-01 -8.22265e-01
       H -2.89477e-01 -5.53789e-01  1.08100e+00
       L  2.02845e+00 -2.40684e+00 -1.65652e+00
       L -1.04540e-01  5.63154e+00  2.08706e+00
6
# CELL(abcABC):  459.05226   459.05226   459.05226    90.00000    90.00000    90.00000  Step:          56  Bead:       0 x_centroid{angstrom}  cell{atomic_unit}
       C -2.76145e-01 -1.00384e-01  1.27562e-01
       O  8.48649e-01  2.59824e-01 -2.23049e-01
       H -1.03346e+00  2.74661e-01 -8.90467e-01
       H -3.12671e-01 -5.35786e-01  1.09174e+00
       L  1.86596e+00 -2.55071e+00 -2.00106e+00
       L -5.77311e-02  5.41147e+00  2.16161e+00
6
# CELL(abcABC):  459.05226   459.05226   459.05226    90.00000    90.00000    90.00000  Step:          57  Bead:       0 x_centroid{angstrom}  cell{atomic_unit}
       C -2.62642e-01 -1.06182e-01  1.35667e-01
       O  8.39718e-01  2.60696e-01 -2.26326e-01
       H -1.02546e+00  3.13800e-01 -9.47882e-01
       H -3.39756e-01 -5.19467e-01  1.10471e+00
       L  1.72005e+00 -2.61476e+00 -2.35329e+00
       L  2.30627e-03  5.08699e+00  2.27951e+00
6
# CELL(abcABC):  459.05226   459.05226   459.05226    90.00000    90.00000    90.00000  Step:          58  Bead:       0 x_centroid{angstrom}  cell{atomic_unit}
       C -2.48908e-01 -1.11277e-01  1.42213e-01
       O  8.30725e-01  2.61445e-01 -2.29244e-01
       H -1.01541e+00  3.47687e-01 -9.94185e-01
       H -3.70644e-01 -5.04295e-01  1.11944e+00
       L  1.55945e+00 -2.63195e+00 -2.62606e+00
       L  3.65977e-02  4.67272e+00  2.35925e+00
6
# CELL(abcABC):  459.05226   459.05226   459.05226    90.00000    90.00000    90.00000  Step:          59  Bead:       0 x_centroid{angstrom}  cell{atomic_unit}
       C -2.35110e-01 -1.15446e-01  1.47312e-01
       O  8.21946e-01  2.62071e-01 -2.31886e-01
       H -1.00539e+00  3.75375e-01 -1.02899e+00
       H -4.05648e-01 -4.92021e-01  1.13553e+00
       L  1.34798e+00 -2.59649e+00 -2.84054e+00
       L  8.57719e-02  4.23035e+00  2.38390e+00
6
# CELL(abcABC):  459.05226   459.05226   459.05226    90.00000    90.00000    90.00000  Step:          60  Bead:       0 x_centroid{angstrom}  cell{atomic_unit}
       C -2.21809e-01 -1.18895e-01  1.50990e-01
       O  8.13611e-01  2.62608e-01 -2.34218e-01
       H -9.94126e-01  3.97376e-01 -1.05204e+00
       H -4.42990e-01 -4.81234e-01  1.15184e+00
       L  1.09390e+00 -2.56805e+00 -2.98332e+00
       L  1.35663e-01  3.81052e+00  2.40984e+00
6
# CELL(abcABC):  459.05226   459.05226   459.05226    90.00000    90.00000    90.00000  Step:          61  Bead:       0 x_centroid{angstrom}  cell{atomic_unit}
       C -2.08864e-01 -1.21814e-01  1.53213e-01
       O  8.05484e-01  2.63217e-01 -2.36119e-01
       H -9.80493e-01  4.13253e-01 -1.06460e+00
       H -4.81671e-01 -4.71769e-01  1.16816e+00
       L  7.36755e-01 -2.56896e+00 -3.13061e+00
       L  1.07657e-01  3.37788e+00  2.40418e+00
6
# CELL(abcABC):  459.05226   459.05226   459.05226    90.00000    90.00000    90.00000  Step:          62  Bead:       0 x_centroid{angstrom}  cell{atomic_unit}
       C -1.96680e-01 -1.24072e-01  1.54616e-01
       O  7.97982e-01  2.63706e-01 -2.37821e-01
       H -9.67811e-01  4.22977e-01 -1.06793e+00
       H -5.20234e-01 -4.62117e-01  1.18188e+00
       L  3.59654e-01 -2.52271e+00 -3.29889e+00
       L  7.93081e-02  2.91794e+00  2.39379e+00
6
# CELL(abcABC):  459.05226   459.05226   459.05226    90.00000    90.00000    90.00000  Step:          63  Bead:       0 x_centroid{angstrom}  cell{atomic_unit}
       C -1.85651e-01 -1.25546e-01  1.55516e-01
       O  7.91364e-01  2.64009e-01 -2.39454e-01
       H -9.55732e-01  4.26252e-01 -1.06272e+00
       H -5.58452e-01 -4.52415e-01  1.19193e+00
       L -2.26669e-02 -2.47373e+00 -3.39297e+00
       L  4.03969e-02  2.44905e+00  2.36255e+00
6
# CELL(abcABC):  459.05226   459.05226   459.05226    90.00000    90.00000    90.00000  Step:          64  Bead:       0 x_centroid{angstrom}  cell{atomic_unit}
       C -1.76420e-01 -1.26909e-01  1.55509e-01
       O  7.86170e-01  2.64607e-01 -2.40799e-01
       H -9.45582e-01  4.23307e-01 -1.04765e+00
       H -5.95891e-01 -4.42480e-01  1.19834e+00
       L -4.03895e-01 -2.36192e+00 -3.42557e+00
       L -6.60172e-02  1.90183e+00  2.32645e+00
6
# CELL(abcABC):  459.05226   459.05226   459.05226    90.00000    90.00000    90.00000  Step:          65  Bead:       0 x_centroid{angstrom}  cell{atomic_unit}
       C -1.69157e-01 -1.27929e-01  1.55251e-01
       O  7.82438e-01  2.65401e-01 -2.42234e-01
       H -9.36940e-01  4.13111e-01 -1.02340e+00
       H -6.31599e-01 -4.32468e-01  1.19998e+00
       L -7.60040e-01 -2.23060e+00 -3.48503e+00
       L -1.50021e-01  1.30409e+00  2.29983e+00
6
# CELL(abcABC):  459.05226   459.05226   459.05226    90.00000    90.00000    90.00000  Step:          66  Bead:       0 x_centroid{angstrom}  cell{atomic_unit}
       C -1.63951e-01 -1.28626e-01  1.54934e-01