6
# CELL(abcABC):  459.05226   459.05226   459.05226    90.00000    90.00000    90.00000  Step:           0  Bead:       0 x_centroid{angstrom}  cell{atomic_unit}
       C -3.39887e-01 -1.13437e-01  8.06659e-02
       O  8.43483e-01  2.62672e-01 -1.81512e-01
       H -7.35799e-02  8.16467e-01 -6.61432e-01
       H -4.30016e-01 -9.65701e-01  7.62278e-01
       L  0.00000e+00  0.00000e+00  0.00000e+00
       L  0.00000e+00  0.00000e+00  0.00000e+00
6
# CELL(abcABC):  459.05226   459.05226   459.05226    90.00000    90.00000    90.00000  Step:           1  Bead:       0 x_centroid{angstrom}  cell{atomic_unit}
       C -3.37446e-01 -1.18260e-01  8.25890e-02
       O  8.43391e-01  2.65051e-01 -1.82903e-01
       H -8.33608e-02  8.21842e-01 -6.55960e-01
       H -4.47781e-01 -9.51564e-01  7.56222e-01
       L -2.74604e-01  2.83276e-01  6.09322e-03
       L  1.43880e-01  6.12899e-02 -4.70648e-01
6
# CELL(abcABC):  459.05226   459.05226   459.05226    90.00000    90.00000    90.00000  Step:           2  Bead:       0 x_centroid{angstrom}  cell{atomic_unit}
       C -3.35261e-01 -1.22902e-01  8.44657e-02
       O  8.43409e-01  2.67401e-01 -1.84227e-01
       H -9.27408e-02  8.26282e-01 -6.51194e-01
       H -4.64676e-01 -9.38218e-01  7.50358e-01
       L -4.98491e-01  6.28373e-01 -4.10125e-03
       L  2.83804e-01  1.10674e-01 -9.27555e-01
6
# CELL(abcABC):  459.05226   459.05226   459.05226    90.00000    90.00000    90.00000  Step:           3  Bead:       0 x_centroid{angstrom}  cell{atomic_unit}
       C -3.33219e-01 -1.26876e-01  8.58649e-02
       O  8.43481e-01  2.69514e-01 -1.85413e-01
       H -1.02414e-01  8.30031e-01 -6.46056e-01
       H -4.80460e-01 -9.28382e-01  7.47583e-01
       L -6.63131e-01  9.78078e-01  1.91491e-02
       L  4.19763e-01  2.01981e-01 -1.35274e+00
6
# CELL(abcABC):  459.05226   459.05226   459.05226    90.00000    90.00000    90.00000  Step:           4  Bead:       0 x_centroid{angstrom}  cell{atomic_unit}
       C -3.31181e-01 -1.30373e-01  8.68297e-02
       O  8.43540e-01  2.71551e-01 -1.86396e-01
       H -1.12843e-01  8.32121e-01 -6.41524e-01
       H -4.95241e-01 -9.21396e-01  7.47379e-01
       L -8.33558e-01  1.34277e+00  7.05756e-02
       L  5.53811e-01  3.33942e-01 -1.79051e+00
6
# CELL(abcABC):  459.05226   459.05226   459.05226    90.00000    90.00000    90.00000  Step:           5  Bead:       0 x_centroid{angstrom}  cell{atomic_unit}
       C -3.29141e-01 -1.33635e-01  8.70625e-02
       O  8.43684e-01  2.73703e-01 -1.87187e-01
       H -1.25713e-01  8.31910e-01 -6.36038e-01
       H -5.08962e-01 -9.16701e-01  7.51871e-01
       L -9.90653e-01  1.63890e+00  1.25281e-01
       L  6.95812e-01  4.48750e-01 -2.20075e+00
6
# CELL(abcABC):  459.05226   459.05226   459.05226    90.00000    90.00000    90.00000  Step:           6  Bead:       0 x_centroid{angstrom}  cell{atomic_unit}
       C -3.26969e-01 -1.36373e-01  8.71329e-02
       O  8.43847e-01  2.75825e-01 -1.88111e-01
       H -1.40224e-01  8.31137e-01 -6.28802e-01
       H -5.22896e-01 -9.17166e-01  7.58622e-01
       L -1.14455e+00  1.83127e+00  1.55909e-01
       L  8.25064e-01  5.64311e-01 -2.53061e+00
6
# CELL(abcABC):  459.05226   459.05226   459.05226    90.00000    90.00000    90.00000  Step:           7  Bead:       0 x_centroid{angstrom}  cell{atomic_unit}
       C -3.24752e-01 -1.38337e-01  8.66905e-02
       O  8.44124e-01  2.77674e-01 -1.88770e-01
       H -1.57458e-01  8.28054e-01 -6.21270e-01
       H -5.36433e-01 -9.20197e-01  7.66968e-01
       L -1.33112e+00  2.01709e+00  1.72776e-01
       L  9.03704e-01  7.05707e-01 -2.80725e+00
6
# CELL(abcABC):  459.05226   459.05226   459.05226    90.00000    90.00000    90.00000  Step:           8  Bead:       0 x_centroid{angstrom}  cell{atomic_unit}
       C -3.22444e-01 -1.39603e-01  8.59429e-02
       O  8.44512e-01  2.79145e-01 -1.89432e-01
       H -1.78663e-01  8.23901e-01 -6.11801e-01
       H -5.48832e-01 -9.24468e-01  7.77007e-01
       L -1.51682e+00  2.16064e+00  2.56850e-01
       L  9.95481e-01  8.44386e-01 -3.07178e+00
6
# CELL(abcABC):  459.05226   459.05226   459.05226    90.00000    90.00000    90.00000  Step:           9  Bead:       0 x_centroid{angstrom}  cell{atomic_unit}
       C -3.19897e-01 -1.40044e-01  8.49983e-02
       O  8.45010e-01  2.80180e-01 -1.90052e-01
       H -2.05196e-01  8.17677e-01 -6.01144e-01
       H -5.60457e-01 -9.29543e-01  7.87555e-01
       L -1.70856e+00  2.26824e+00  3.24839e-01
       L  1.02918e+00  9.77205e-01 -3.34930e+00
6
# CELL(abcABC):  459.05226   459.05226   459.05226    90.00000    90.00000    90.00000  Step:          10  Bead:       0 x_centroid{angstrom}  cell{atomic_unit}
       C -3.17273e-01 -1.39784e-01  8.41592e-02
       O  8.45868e-01  2.80889e-01 -1.90768e-01
       H -2.39949e-01  8.09227e-01 -5.91139e-01
       H -5.70557e-01 -9.35582e-01  7.98988e-01
       L -1.83807e+00  2.36470e+00  3.85301e-01
       L  1.09301e+00  1.11062e+00 -3.52394e+00
6
# CELL(abcABC):  459.05226   459.05226   459.05226    90.00000    90.00000    90.00000  Step:          11  Bead:       0 x_centroid{angstrom}  cell{atomic_unit}
       C -3.13933e-01 -1.38695e-01  8.31127e-02
       O  8.46766e-01  2.81071e-01 -1.91386e-01
       H -2.83987e-01  8.00096e-01 -5.79834e-01
       H -5.80580e-01 -9.42468e-01  8.09969e-01
       L -1.92490e+00  2.52178e+00  4.53539e-01
       L  1.15961e+00  1.23615e+00 -3.61392e+00
6
# CELL(abcABC):  459.05226   459.05226   459.05226    90.00000    90.00000    90.00000  Step:          12  Bead:       0 x_centroid{angstrom}  cell{atomic_unit}
       C -3.10057e-01 -1.37041e-01  8.17546e-02
       O  8.47915e-01  2.80700e-01 -1.91694e-01
       H -3.40277e-01  7.90282e-01 -5.68450e-01
       H -5.88728e-01 -9.46624e-01  8.19628e-01
       L -1.96745e+00  2.66481e+00  5.29927e-01
       L  1.22773e+00  1.37963e+00 -3.63793e+00
6
# CELL(abcABC):  459.05226   459.05226   459.05226    90.00000    90.00000    90.00000  Step:          13  Bead:       0 x_centroid{angstrom}  cell{atomic_unit}
       C -3.05478e-01 -1.34740e-01  7.99727e-02
       O  8.49291e-01  2.79880e-01 -1.91508e-01
       H -4.09611e-01  7.77833e-01 -5.56788e-01
       H -5.95831e-01 -9.48700e-01  8.26164e-01
       L -1.97889e+00  2.73940e+00  6.68158e-01
       L  1.31929e+00  1.52410e+00 -3.60882e+00
6
# CELL(abcABC):  459.05226   459.05226   459.05226    90.00000    90.00000    90.00000  Step:          14  Bead:       0 x_centroid{angstrom}  cell{atomic_unit}
       C -3.00051e-01 -1.31687e-01  7.75337e-02
       O  8.50828e-01  2.78418e-01 -1.90794e-01
       H -4.90888e-01  7.63891e-01 -5.42967e-01
       H -6.03639e-01 -9.48024e-01  8.29971e-01
       L -2.01855e+00  2.74182e+00  7.61899e-01
       L  1.40436e+00  1.67846e+00 -3.51311e+00
6
# CELL(abcABC):  459.05226   459.05226   459.05226    90.00000    90.00000    90.00000  Step:          15  Bead:       0 x_centroid{angstrom}  cell{atomic_unit}
       C -2.93859e-01 -1.27855e-01  7.48568e-02
       O  8.52483e-01  2.76316e-01 -1.89621e-01
       H -5.84051e-01  7.47133e-01 -5.29073e-01
       H -6.10547e-01 -9.43579e-01  8.29266e-01
       L -2.01105e+00  2.68131e+00  8.28656e-01
       L  1.42213e+00  1.78285e+00 -3.43014e+00
6
# CELL(abcABC):  459.05226   459.05226   459.05226    90.00000    90.00000    90.00000  Step:          16  Bead:       0 x_centroid{angstrom}  cell{atomic_unit}
       C -2.86938e-01 -1.23517e-01  7.15953e-02
       O  8.54288e-01  2.73766e-01 -1.87903e-01
       H -6.90100e-01  7.28656e-01 -5.12706e-01
       H -6.15676e-01 -9.36363e-01  8.24384e-01
       L -1.96800e+00  2.68955e+00  8.91663e-01
       L  1.45224e+00  1.87104e+00 -3.29218e+00
6
# CELL(abcABC):  459.05226   459.05226   459.05226    90.00000    90.00000    90.00000  Step:          17  Bead:       0 x_centroid{angstrom}  cell{atomic_unit}
       C -2.79197e-01 -1.18531e-01  6.83963e-02
       O  8.55981e-01  2.70810e-01 -1.85999e-01
       H -8.06009e-01  7.05672e-01 -4.95510e-01
       H -6.18882e-01 -9.25907e-01  8.14973e-01
       L -1.94862e+00  2.66448e+00  9.85353e-01
       L  1.43439e+00  1.93940e+00 -3.17819e+00
6
# CELL(abcABC):  459.05226   459.05226   459.05226    90.00000    90.00000    90.00000  Step:          18  Bead:       0 x_centroid{angstrom}  cell{atomic_unit}
       C -2.71320e-01 -1.12670e-01  6.46716e-02
       O  8.57778e-01  2.67372e-01 -1.83655e-01
       H -9.25290e-01  6.76500e-01 -4.75224e-01
       H -6.21959e-01 -9.11959e-01  8.01700e-01
       L -1.97272e+00  2.59019e+00  1.11797e+00
       L  1.40529e+00  1.96798e+00 -3.02030e+00
6
# CELL(abcABC):  459.05226   459.05226   459.05226    90.00000    90.00000    90.00000  Step:          19  Bead:       0 x_centroid{angstrom}  cell{atomic_unit}
       C -2.63123e-01 -1.05983e-01  6.06707e-02
       O  8.59146e-01  2.63574e-01 -1.81057e-01
       H -1.04439e+00  6.40365e-01 -4.52450e-01
       H -6.22225e-01 -8.95175e-01  7.85157e-01
       L -1.97716e+00  2.46752e+00  1.28422e+00
       L  1.38229e+00  1.99541e+00 -2.80893e+00
6
# CELL(abcABC):  459.05226   459.05226   459.05226    90.00000    90.00000    90.00000  Step:          20  Bead:       0 x_centroid{angstrom}  cell{atomic_unit}
       C -2.55309e-01 -9.87212e-02  5.63516e-02
       O  8.60420e-01  2.59619e-01 -1.78270e-01
       H -1.15913e+00  5.98205e-01 -4.26586e-01
       H -6.20821e-01 -8.76688e-01  7.66300e-01
       L -1.93694e+00  2.31808e+00  1.48442e+00
       L  1.34931e+00  2.00447e+00 -2.59650e+00
6
# CELL(abcABC):  459.05226   459.05226   459.05226    90.00000    90.00000    90.00000  Step:          21  Bead:       0 x_centroid{angstrom}  cell{atomic_unit}
       C -2.47604e-01 -9.08111e-02  5.16332e-02
       O  8.61284e-01  2.55334e-01 -1.75305e-01
       H -1.26799e+00  5.52081e-01 -3.97400e-01
       H -6.17458e-01 -8.56726e-01  7.46041e-01
       L -1.90266e+00  2.16314e+00  1.66112e+00
       L  1.25503e+00  2.00755e+00 -2.34132e+00
6
# CELL(abcABC):  459.05226   459.05226   459.05226    90.00000    90.00000    90.00000  Step:          22  Bead:       0 x_centroid{angstrom}  cell{atomic_unit}
       C -2.40595e-01 -8.21286e-02  4.67851e-02
       O  8.61920e-01  2.50778e-01 -1.72293e-01
       H -1.36760e+00  5.01997e-01 -3.65748e-01
       H -6.11428e-01 -8.37640e-01  7.24102e-01
       L -1.85882e+00  1.91448e+00  1.86969e+00
       L  1.14060e+00  2.00237e+00 -2.08629e+00
6
# CELL(abcABC):  459.05226   459.05226   459.05226    90.00000    90.00000    90.00000  Step:          23  Bead:       0 x_centroid{angstrom}  cell{atomic_unit}
       C -2.34464e-01 -7.28809e-02  4.17922e-02
       O  8.62531e-01  2.46077e-01 -1.69321e-01
       H -1.45777e+00  4.49275e-01 -3.32128e-01
       H -6.04018e-01 -8.20319e-01  7.02581e-01
       L -1.74150e+00  1.60068e+00  2.02547e+00
       L  1.01426e+00  1.97006e+00 -1.83992e+00
6
# CELL(abcABC):  459.05226   459.05226   459.05226    90.00000    90.00000    90.00000  Step:          24  Bead:       0 x_centroid{angstrom}  cell{atomic_unit}
       C -2.29536e-01 -6.32571e-02  3.69265e-02
       O  8.63228e-01  2.41413e-01 -1.66585e-01
       H -1.53720e+00  3.93020e-01 -2.98373e-01
       H -5.94358e-01 -8.04525e-01  6.83190e-01
       L -1.63976e+00  1.27861e+00  2.15014e+00
       L  8.75552e-01  1.96182e+00 -1.61858e+00
6
# CELL(abcABC):  459.05226   459.05226   459.05226    90.00000    90.00000    90.00000  Step:          25  Bead:       0 x_centroid{angstrom}  cell{atomic_unit}
       C -2.25903e-01 -5.32619e-02  3.20249e-02
       O  8.64096e-01  2.36653e-01 -1.63908e-01
       H -1.60542e+00  3.36677e-01 -2.66049e-01
       H -5.83204e-01 -7.91556e-01  6.66593e-01
       L -1.53901e+00  1.01157e+00  2.23433e+00
       L  7.65405e-01  1.92459e+00 -1.35938e+00
6
# CELL(abcABC):  459.05226   459.05226   459.05226    90.00000    90.00000    90.00000  Step:          26  Bead:       0 x_centroid{angstrom}  cell{atomic_unit}
       C -2.23767e-01 -4.30271e-02  2.69708e-02
       O  8.65312e-01  2.31958e-01 -1.61281e-01
       H -1.66320e+00  2.81907e-01 -2.35529e-01
       H -5.70136e-01 -7.83959e-01  6.54395e-01
       L -1.43656e+00  6.91688e-01  2.26457e+00
       L  6.25409e-01  1.76662e+00 -1.02248e+00
6
# CELL(abcABC):  459.05226   459.05226   459.05226    90.00000    90.00000    90.00000  Step:          27  Bead:       0 x_centroid{angstrom}  cell{atomic_unit}
       C -2.23370e-01 -3.31620e-02  2.21170e-02
       O  8.66939e-01  2.27711e-01 -1.58938e-01
       H -1.70997e+00  2.29023e-01 -2.07446e-01
       H -5.53911e-01 -7.80944e-01  6.46764e-01
       L -1.34385e+00  3.43432e-01  2.28047e+00
       L  5.04097e-01  1.60251e+00 -6.77396e-01
6
# CELL(abcABC):  459.05226   459.05226   459.05226    90.00000    90.00000    90.00000  Step:          28  Bead:       0 x_centroid{angstrom}  cell{atomic_unit}
       C -2.24539e-01 -2.34844e-02  1.74091e-02
       O  8.69023e-01  2.23756e-01 -1.56936e-01
       H -1.74674e+00  1.80339e-01 -1.80929e-01
       H -5.36296e-01 -7.84545e-01  6.44362e-01
       L -1.19473e+00  4.84068e-02  2.28192e+00
       L  3.62353e-01  1.43532e+00 -3.07665e-01
6
# CELL(abcABC):  459.05226   459.05226   459.05226    90.00000    90.00000    90.00000  Step:          29  Bead:       0 x_centroid{angstrom}  cell{atomic_unit}
       C -2.27448e-01 -1.38737e-02  1.30762e-02
       O  8.71848e-01  2.19900e-01 -1.55275e-01
       H -1.77483e+00  1.35449e-01 -1.56991e-01
       H -5.18362e-01 -7.92752e-01  6.45494e-01
       L -1.05825e+00 -2.27581e-01  2.26472e+00
       L  1.93289e-01  1.32533e+00  7.10585e-02
6
# CELL(abcABC):  459.05226   459.05226   459.05226    90.00000    90.00000    90.00000  Step:          30  Bead:       0 x_centroid{angstrom}  cell{atomic_unit}
       C -2.31905e-01 -4.75998e-03  9.14017e-03
       O  8.75091e-01  2.16372e-01 -1.53836e-01
       H -1.79242e+00  9.53868e-02 -1.37365e-01
       H -4.99204e-01 -8.05085e-01  6.49762e-01
       L -8.53019e-01 -4.93175e-01  2.21663e+00
       L  7.13155e-02  1.20885e+00  4.36368e-01
6
# CELL(abcABC):  459.05226   459.05226   459.05226    90.00000    90.00000    90.00000  Step:          31  Bead:       0 x_centroid{angstrom}  cell{atomic_unit}
       C -2.37431e-01  3.71746e-03  5.79539e-03
       O  8.78449e-01  2.13096e-01 -1.52827e-01
       H -1.80103e+00  6.05901e-02 -1.21002e-01
       H -4.78109e-01 -8.19077e-01  6.57126e-01
       L -5.79959e-01 -7.89651e-01  2.08261e+00
       L -6.97519e-02  1.09285e+00  7.64984e-01
6
# CELL(abcABC):  459.05226   459.05226   459.05226    90.00000    90.00000    90.00000  Step:          32  Bead:       0 x_centroid{angstrom}  cell{atomic_unit}
       C -2.43907e-01  1.12012e-02  2.72443e-03
       O  8.81762e-01  2.10322e-01 -1.51983e-01
       H -1.79840e+00  3.10681e-02 -1.07517e-01
       H -4.56287e-01 -8.34479e-01  6.66785e-01
       L -2.49031e-01 -1.05372e+00  1.90585e+00
       L -1.66969e-01  9.55589e-01  1.05550e+00
6
# CELL(abcABC):  459.05226   459.05226   459.05226    90.00000    90.00000    90.00000  Step:          33  Bead:       0 x_centroid{angstrom}  cell{atomic_unit}
       C -2.51351e-01  1.75446e-02  6.11469e-04
       O  8.85102e-01  2.08107e-01 -1.51690e-01
       H -1.78739e+00  7.07787e-03 -9.76989e-02
       H -4.31720e-01 -8.50725e-01  6.77475e-01
       L  2.69441e-02 -1.32669e+00  1.68731e+00
       L -2.33147e-01  8.56000e-01  1.28223e+00
6
# CELL(abcABC):  459.05226   459.05226   459.05226    90.00000    90.00000    90.00000  Step:          34  Bead:       0 x_centroid{angstrom}  cell{atomic_unit}
       C -2.59634e-01  2.26624e-02 -5.31084e-04
       O  8.88553e-01  2.06249e-01 -1.51966e-01
       H -1.76834e+00 -1.01052e-02 -9.04923e-02
       H -4.06957e-01 -8.64869e-01  6.88243e-01
       L  3.29768e-01 -1.55958e+00  1.48480e+00
       L -3.35423e-01  7.82692e-01  1.52358e+00
6
# CELL(abcABC):  459.05226   459.05226   459.05226    90.00000    90.00000    90.00000  Step:          35  Bead:       0 x_centroid{angstrom}  cell{atomic_unit}
       C -2.68334e-01  2.66293e-02 -5.52108e-04
       O  8.91785e-01  2.04778e-01 -1.52585e-01
       H -1.74057e+00 -2.07578e-02 -8.91503e-02
       H -3.82487e-01 -8.77967e-01  6.97004e-01
       L  6.57017e-01 -1.82273e+00  1.28739e+00
       L -4.31664e-01  7.29822e-01  1.69340e+00
6
# CELL(abcABC):  459.05226   459.05226   459.05226    90.00000    90.00000    90.00000  Step:          36  Bead:       0 x_centroid{angstrom}  cell{atomic_unit}
       C -2.78140e-01  2.92539e-02  6.40932e-04
       O  8.95144e-01  2.03718e-01 -1.53767e-01
       H -1.70310e+00 -2.49560e-02 -9.15754e-02
       H -3.56542e-01 -8.88047e-01  7.04018e-01
       L  9.73011e-01 -2.09126e+00  1.05280e+00
       L -5.34805e-01  7.01562e-01  1.84865e+00
6
# CELL(abcABC):  459.05226   459.05226   459.05226    90.00000    90.00000    90.00000  Step:          37  Bead:       0 x_centroid{angstrom}  cell{atomic_unit}
       C -2.88208e-01  3.05139e-02  2.77452e-03
       O  8.98138e-01  2.02983e-01 -1.55393e-01
       H -1.65555e+00 -2.09358e-02 -9.68346e-02
       H -3.31737e-01 -8.95233e-01  7.09681e-01
       L  1.25108e+00 -2.37702e+00  8.62837e-01
       L -6.52163e-01  6.47590e-01  2.01051e+00
6
# CELL(abcABC):  459.05226   459.05226   459.05226    90.00000    90.00000    90.00000  Step:          38  Bead:       0 x_centroid{angstrom}  cell{atomic_unit}
       C -2.98377e-01  3.06875e-02  5.65898e-03
       O  9.00575e-01  2.02447e-01 -1.57114e-01
       H -1.59759e+00 -1.07339e-02 -1.07155e-01
       H -3.07259e-01 -8.98856e-01  7.13005e-01
       L  1.49022e+00 -2.57696e+00  6.23883e-01
       L -7.89465e-01  5.82474e-01  2.12918e+00
6
# CELL(abcABC):  459.05226   459.05226   459.05226    90.00000    90.00000    90.00000  Step:          39  Bead:       0 x_centroid{angstrom}  cell{atomic_unit}
       C -3.08574e-01  2.96647e-02  9.46926e-03
       O  9.02759e-01  2.02208e-01 -1.59218e-01
       H -1.53125e+00  5.58886e-03 -1.21663e-01
       H -2.86800e-01 -8.99031e-01  7.15610e-01
       L  1.70775e+00 -2.81729e+00  3.68445e-01
       L -9.31166e-01  5.21018e-01  2.20819e+00
6
# CELL(abcABC):  459.05226   459.05226   459.05226    90.00000    90.00000    90.00000  Step:          40  Bead:       0 x_centroid{angstrom}  cell{atomic_unit}
       C -3.18355e-01  2.75502e-02  1.41650e-02
       O  9.04314e-01  2.02153e-01 -1.61698e-01
       H -1.45618e+00  2.81174e-02 -1.40283e-01
       H -2.70014e-01 -8.95297e-01  7.17732e-01
       L  1.91980e+00 -3.02116e+00  1.54545e-01
       L -1.12905e+00  3.63464e-01  2.23637e+00
6
# CELL(abcABC):  459.05226   459.05226   459.05226    90.00000    90.00000    90.00000  Step:          41  Bead:       0 x_centroid{angstrom}  cell{atomic_unit}
       C -3.27120e-01  2.43630e-02  1.93983e-02
       O  9.05018e-01  2.02267e-01 -1.64302e-01
       H -1.37743e+00  5.75827e-02 -1.62776e-01
       H -2.55483e-01 -8.88365e-01  7.19344e-01
       L  2.08797e+00 -3.24847e+00 -9.15442e-02
       L -1.32705e+00  1.94143e-01  2.21721e+00
6
# CELL(abcABC):  459.05226   459.05226   459.05226    90.00000    90.00000    90.00000  Step:          42  Bead:       0 x_centroid{angstrom}  cell{atomic_unit}
       C -3.34654e-01  1.94545e-02  2.52791e-02
       O  9.05091e-01  2.03056e-01 -1.67140e-01
       H -1.30006e+00  9.38661e-02 -1.89372e-01
       H -2.44248e-01 -8.78450e-01  7.21056e-01
       L  2.26949e+00 -3.47249e+00 -3.51411e-01
       L -1.47981e+00 -2.68378e-02  2.21570e+00
6
# CELL(abcABC):  459.05226   459.05226   459.05226    90.00000    90.00000    90.00000  Step:          43  Bead:       0 x_centroid{angstrom}  cell{atomic_unit}
       C -3.39611e-01  1.33132e-02  3.18256e-02
       O  9.04132e-01  2.04186e-01 -1.69990e-01
       H -1.23280e+00  1.35543e-01 -2.22904e-01
       H -2.37222e-01 -8.64648e-01  7.21968e-01
       L  2.41877e+00 -3.64958e+00 -6.03895e-01
       L -1.62542e+00 -2.75300e-01  2.20120e+00
6
# CELL(abcABC):  459.05226   459.05226   459.05226    90.00000    90.00000    90.00000  Step:          44  Bead:       0 x_centroid{angstrom}  cell{atomic_unit}
       C -3.41597e-01  5.93380e-03  3.94584e-02
       O  9.02373e-01  2.05622e-01 -1.73099e-01
       H -1.18208e+00  1.84690e-01 -2.66270e-01
       H -2.36322e-01 -8.48484e-01  7.23915e-01
       L  2.52974e+00 -3.76137e+00 -8.85921e-01
       L -1.78383e+00 -4.71416e-01  2.13460e+00
6
# CELL(abcABC):  459.05226   459.05226   459.05226    90.00000    90.00000    90.00000  Step:          45  Bead:       0 x_centroid{angstrom}  cell{atomic_unit}
       C -3.39910e-01 -2.56681e-03  4.78954e-02
       O  8.99635e-01  2.07269e-01 -1.76239e-01
       H -1.15387e+00  2.42756e-01 -3.19637e-01
       H -2.41091e-01 -8.31247e-01  7.26754e-01
       L  2.63922e+00 -3.84348e+00 -1.12675e+00
       L -2.02482e+00 -6.72083e-01  2.08543e+00
6
# CELL(abcABC):  459.05226   459.05226   459.05226    90.00000    90.00000    90.00000  Step:          46  Bead:       0 x_centroid{angstrom}  cell{atomic_unit}
       C -3.35179e-01 -1.20512e-02  5.71372e-02
       O  8.96073e-01  2.09122e-01 -1.79566e-01
       H -1.14344e+00  3.09115e-01 -3.82065e-01
       H -2.51306e-01 -8.13917e-01  7.32045e-01
       L  2.73133e+00 -3.83871e+00 -1.39882e+00
       L -2.20657e+00 -8.41280e-01  2.01429e+00
6
# CELL(abcABC):  459.05226   459.05226   459.05226    90.00000    90.00000    90.00000  Step:          47  Bead:       0 x_centroid{angstrom}  cell{atomic_unit}
       C -3.27603e-01 -2.17074e-02  6.68333e-02
       O  8.91332e-01  2.10922e-01 -1.83015e-01
       H -1.14254e+00  3.81817e-01 -4.50218e-01
       H -2.67202e-01 -8.00066e-01  7.39600e-01
       L  2.85524e+00 -3.80744e+00 -1.68091e+00
       L -2.37697e+00 -9.83794e-01  1.95745e+00
6
# CELL(abcABC):  459.05226   459.05226   459.05226    90.00000    90.00000    90.00000  Step:          48  Bead:       0 x_centroid{angstrom}  cell{atomic_unit}
       C -3.18419e-01 -3.12939e-02  7.62462e-02
       O  8.85956e-01  2.12883e-01 -1.86445e-01
       H -1.14438e+00  4.55877e-01 -5.21076e-01
       H -2.89482e-01 -7.90977e-01  7.52897e-01
       L  3.01308e+00 -3.72262e+00 -1.93678e+00
       L -2.50407e+00 -1.15961e+00  1.90108e+00
6
# CELL(abcABC):  459.05226   459.05226   459.05226    90.00000    90.00000    90.00000  Step:          49  Bead:       0 x_centroid{angstrom}  cell{atomic_unit}
       C -3.07989e-01 -4.01548e-02  8.48189e-02
       O  8.79879e-01  2.14785e-01 -1.89731e-01
       H -1.14477e+00  5.27249e-01 -5.88689e-01
       H -3.16976e-01 -7.86903e-01  7.70692e-01
       L  3.22962e+00 -3.61866e+00 -2.16809e+00
       L -2.62191e+00 -1.33938e+00  1.82318e+00
6
# CELL(abcABC):  459.05226   459.05226   459.05226    90.00000    90.00000    90.00000  Step:          50  Bead:       0 x_centroid{angstrom}  cell{atomic_unit}
       C -2.96405e-01 -4.82175e-02  9.20977e-02
       O  8.73036e-01  2.16719e-01 -1.92765e-01
       H -1.14120e+00  5.94503e-01 -6.50238e-01
       H -3.50025e-01 -7.88756e-01  7.93833e-01
       L  3.39575e+00 -3.47716e+00 -2.40690e+00
       L -2.69210e+00 -1.53174e+00  1.74819e+00
6
# CELL(abcABC):  459.05226   459.05226   459.05226    90.00000    90.00000    90.00000  Step:          51  Bead:       0 x_centroid{angstrom}  cell{atomic_unit}
       C -2.84111e-01 -5.54421e-02  9.80942e-02
       O  8.65630e-01  2.18799e-01 -1.95606e-01
       H -1.13200e+00  6.54452e-01 -7.03298e-01
       H -3.88189e-01 -7.95630e-01  8.20726e-01
       L  3.50640e+00 -3.31488e+00 -2.63635e+00
       L -2.73280e+00 -1.67912e+00  1.64447e+00
6
# CELL(abcABC):  459.05226   459.05226   459.05226    90.00000    90.00000    90.00000  Step:          52  Bead:       0 x_centroid{angstrom}  cell{atomic_unit}
       C -2.71348e-01 -6.17399e-02  1.02647e-01
       O  8.57860e-01  2.20842e-01 -1.98124e-01
       H -1.11795e+00  7.06482e-01 -7.47674e-01
       H -4.31041e-01 -8.05053e-01  8.50987e-01
       L  3.59163e+00 -3.14447e+00 -2.83977e+00
       L -2.71770e+00 -1.83378e+00  1.51245e+00
6
# CELL(abcABC):  459.05226   459.05226   459.05226    90.00000    90.00000    90.00000  Step:          53  Bead:       0 x_centroid{angstrom}  cell{atomic_unit}
       C -2.58492e-01 -6.70856e-02  1.06010e-01
       O  8.49971e-01  2.22638e-01 -2.00353e-01
       H -1.09943e+00  7.50781e-01 -7.83235e-01
       H -4.77628e-01 -8.14221e-01  8.82050e-01
       L  3.73213e+00 -2.99003e+00 -3.04873e+00
       L -2.71272e+00 -1.89276e+00  1.36308e+00
6
# CELL(abcABC):  459.05226   459.05226   459.05226    90.00000    90.00000    90.00000  Step:          54  Bead:       0 x_centroid{angstrom}  cell{atomic_unit}
       C -2.45709e-01 -7.19126e-02  1.08761e-01
       O  8.41889e-01  2.24394e-01 -2.02586e-01
       H -1.07615e+00  7.87931e-01 -8.10213e-01
       H -5.24995e-01 -8.21775e-01  9.11889e-01
       L  3.81440e+00 -2.82578e+00 -3.23996e+00
       L -2.68819e+00 -1.96881e+00  1.20599e+00
6
# CELL(abcABC):  459.05226   459.05226   459.05226    90.00000    90.00000    90.00000  Step:          55  Bead:       0 x_centroid{angstrom}  cell{atomic_unit}
       C -2.33535e-01 -7.60580e-02  1.10794e-01
       O  8.34236e-01  2.26019e-01 -2.04757e-01
       H -1.05089e+00  8.16610e-01 -8.27677e-01
       H -5.73925e-01 -8.26963e-01  9.39772e-01
       L  3.84495e+00 -2.57953e+00 -3.44669e+00
       L -2.56676e+00 -2.00523e+00  1.05691e+00
6
# CELL(abcABC):  459.05226   459.05226   459.05226    90.00000    90.00000    90.00000  Step:          56  Bead:       0 x_centroid{angstrom}  cell{atomic_unit}
       C -2.22541e-01 -7.96399e-02  1.12361e-01
       O  8.27253e-01  2.27572e-01 -2.06731e-01
       H -1.02358e+00  8.36255e-01 -8.36241e-01
       H -6.21450e-01 -8.28719e-01  9.61230e-01
       L  3.80945e+00 -2.31508e+00 -3.59535e+00
       L -2.42961e+00 -2.00752e+00  8.16395e-01
6
# CELL(abcABC):  459.05226   459.05226   459.05226    90.00000    90.00000    90.00000  Step:          57  Bead:       0 x_centroid{angstrom}  cell{atomic_unit}
       C -2.12472e-01 -8.28873e-02  1.13655e-01
       O  8.20940e-01  2.29036e-01 -2.08501e-01
       H -9.96509e-01  8.48011e-01 -8.37795e-01
       H -6.68340e-01 -8.25142e-01  9.75680e-01
       L  3.74786e+00 -2.02988e+00 -3.76246e+00
       L -2.29311e+00 -2.05192e+00  5.58862e-01
6
# CELL(abcABC):  459.05226   459.05226   459.05226    90.00000    90.00000    90.00000  Step:          58  Bead:       0 x_centroid{angstrom}  cell{atomic_unit}
       C -2.03960e-01 -8.55831e-02  1.14662e-01
       O  8.15625e-01  2.30212e-01 -2.10164e-01
       H -9.69527e-01  8.52298e-01 -8.31428e-01
       H -7.12377e-01 -8.16091e-01  9.83967e-01
       L  3.65841e+00 -1.77381e+00 -3.89909e+00
       L -2.17934e+00 -2.11288e+00  2.44140e-01
6
# CELL(abcABC):  459.05226   459.05226   459.05226    90.00000    90.00000    90.00000  Step:          59  Bead:       0 x_centroid{angstrom}  cell{atomic_unit}
       C -1.97294e-01 -8.77544e-02  1.15406e-01
       O  8.11524e-01  2.31262e-01 -2.11695e-01
       H -9.44219e-01  8.48413e-01 -8.18225e-01
       H -7.52022e-01 -8.03141e-01  9.86432e-01
       L  3.55362e+00 -1.51538e+00 -3.98477e+00
       L -2.09290e+00 -2.09954e+00 -9.37536e-02
6
# CELL(abcABC):  459.05226   459.05226   459.05226    90.00000    90.00000    90.00000  Step:          60  Bead:       0 x_centroid{angstrom}  cell{atomic_unit}
       C -1.92545e-01 -8.96817e-02  1.16068e-01
       O  8.08668e-01  2.32307e-01 -2.13282e-01
       H -9.19940e-01  8.37029e-01 -7.97218e-01
       H -7.87568e-01 -7.85534e-01  9.82916e-01
       L  3.47274e+00 -1.26248e+00 -3.98453e+00
       L -1.98987e+00 -2.08338e+00 -4.36229e-01
6
# CELL(abcABC):  459.05226   459.05226   459.05226    90.00000    90.00000    90.00000  Step:          61  Bead:       0 x_centroid{angstrom}  cell{atomic_unit}
       C -1.89766e-01 -9.11640e-02  1.16397e-01
       O  8.07072e-01  2.33296e-01 -2.14709e-01
       H -8.98030e-01  8.17103e-01 -7.68977e-01
       H -8.17247e-01 -7.63792e-01  9.73534e-01
       L  3.35872e+00 -1.00581e+00 -3.93759e+00
       L -1.89370e+00 -2.04761e+00 -7.36566e-01
6
# CELL(abcABC):  459.05226   459.05226   459.05226    90.00000    90.00000    90.00000  Step:          62  Bead:       0 x_centroid{angstrom}  cell{atomic_unit}
       C -1.89348e-01 -9.20800e-02  1.16528e-01
       O  8.07123e-01  2.33972e-01 -2.16132e-01
       H -8.79221e-01  7.91493e-01 -7.33774e-01
       H -8.41809e-01 -7.38177e-01  9.59471e-01
       L  3.17989e+00 -7.19328e-01 -3.84249e+00
       L -1.79524e+00 -1.99347e+00 -1.03728e+00
6
# CELL(abcABC):  459.05226   459.05226   459.05226    90.00000    90.00000    90.00000  Step:          63  Bead:       0 x_centroid{angstrom}  cell{atomic_unit}
       C -1.91276e-01 -9.24267e-02  1.16836e-01
       O  8.08780e-01  2.34560e-01 -2.17754e-01
       H -8.64848e-01  7.57266e-01 -6.92556e-01
       H -8.59446e-01 -7.09364e-01  9.40453e-01
       L  2.95950e+00 -4.49761e-01 -3.75179e+00
       L -1.68311e+00 -1.90078e+00 -1.34256e+00
6
# CELL(abcABC):  459.05226   459.05226   459.05226    90.00000    90.00000    90.00000  Step:          64  Bead:       0 x_centroid{angstrom}  cell{atomic_unit}
       C -1.95712e-01 -9.22989e-02  1.17309e-01
       O  8.11959e-01  2.35104e-01 -2.19592e-01
       H -8.53001e-01  7.15756e-01 -6.45126e-01
       H -8.68838e-01 -6.78213e-01  9.16601e-01
       L  2.68418e+00 -1.68207e-01 -3.55022e+00
       L -1.52713e+00 -1.81159e+00 -1.64253e+00
6
# CELL(abcABC):  459.05226   459.05226   459.05226    90.00000    90.00000    90.00000  Step:          65  Bead:       0 x_centroid{angstrom}  cell{atomic_unit}
       C -2.02539e-01 -9.10082e-02  1.17514e-01
       O  8.16757e-01  2.35232e-01 -2.21242e-01
       H -8.44775e-01  6.65757e-01 -5.93084e-01
       H -8.71807e-01 -6.45811e-01  8.88340e-01
       L  2.37683e+00  8.91489e-02 -3.31771e+00
       L -1.33611e+00 -1.71996e+00 -1.94326e+00
6
# CELL(abcABC):  459.05226   459.05226   459.05226    90.00000    90.00000    90.00000  Step:          66  Bead:       0 x_centroid{angstrom}  cell{atomic_unit}
       C -2.11399e-01 -8.90134e-02  1.17220e-01