6
# CELL(abcABC):  459.05226   459.05226   459.05226    90.00000    90.00000    90.00000  Step:           0  Bead:       0 x_centroid{angstrom}  cell{atomic_unit}
       C -3.39887e-01 -1.13437e-01  8.06659e-02
       O  8.43483e-01  2.62672e-01 -1.81512e-01
       H -7.35799e-02  8.16467e-01 -6.61432e-01
       H -4.30016e-01 -9.65701e-01  7.62278e-01
       L  0.00000e+00  0.00000e+00  0.00000e+00
       L  0.00000e+00  0.00000e+00  0.00000e+00
6
# CELL(abcABC):  459.05226   459.05226   459.05226    90.00000    90.00000    90.00000  Step:           1  Bead:       0 x_centroid{angstrom}  cell{atomic_unit}
       C -3.40720e-01 -1.11744e-01  8.37388e-02
       O  8.43601e-01  2.62461e-01 -1.82719e-01
       H -7.21622e-02  8.05864e-01 -6.63476e-01
       H -4.23584e-01 -9.71895e-01  7.47030e-01
       L  3.02675e-01  2.17004e-01 -1.09567e-01
       L  8.19260e-02 -2.71702e-01 -2.01621e-01
6
# CELL(abcABC):  459.05226   459.05226   459.05226    90.00000    90.00000    90.00000  Step:           2  Bead:       0 x_centroid{angstrom}  cell{atomic_unit}
       C -3.41478e-01 -1.10081e-01  8.67609e-02
       O  8.43629e-01  2.62211e-01 -1.83946e-01
       H -7.00235e-02  7.96179e-01 -6.65884e-01
       H -4.17375e-01 -9.77995e-01  7.33073e-01
       L  6.29956e-01  3.56778e-01 -2.06357e-01
       L  1.79054e-01 -5.32687e-01 -4.30119e-01
6
# CELL(abcABC):  459.05226   459.05226   459.05226    90.00000    90.00000    90.00000  Step:           3  Bead:       0 x_centroid{angstrom}  cell{atomic_unit}
       C -3.42166e-01 -1.08528e-01  8.98697e-02
       O  8.43654e-01  2.61991e-01 -1.85138e-01
       H -6.82159e-02  7.87025e-01 -6.69760e-01
       H -4.11625e-01 -9.83790e-01  7.18983e-01
       L  9.48414e-01  4.40355e-01 -2.71904e-01
       L  3.42275e-01 -7.56314e-01 -6.37821e-01
6
# CELL(abcABC):  459.05226   459.05226   459.05226    90.00000    90.00000    90.00000  Step:           4  Bead:       0 x_centroid{angstrom}  cell{atomic_unit}
       C -3.42714e-01 -1.06922e-01  9.30121e-02
       O  8.43510e-01  2.61757e-01 -1.86408e-01
       H -6.52832e-02  7.78946e-01 -6.75172e-01
       H -4.06027e-01 -9.91110e-01  7.07199e-01
       L  1.27453e+00  5.92484e-01 -2.24531e-01
       L  5.07399e-01 -9.43373e-01 -8.46605e-01
6
# CELL(abcABC):  459.05226   459.05226   459.05226    90.00000    90.00000    90.00000  Step:           5  Bead:       0 x_centroid{angstrom}  cell{atomic_unit}
       C -3.43464e-01 -1.05432e-01  9.61364e-02
       O  8.43425e-01  2.61575e-01 -1.87689e-01
       H -6.11198e-02  7.71995e-01 -6.81206e-01
       H -4.00169e-01 -9.99009e-01  6.96393e-01
       L  1.61529e+00  6.98381e-01 -1.86753e-01
       L  6.79007e-01 -1.07216e+00 -1.00234e+00
6
# CELL(abcABC):  459.05226   459.05226   459.05226    90.00000    90.00000    90.00000  Step:           6  Bead:       0 x_centroid{angstrom}  cell{atomic_unit}
       C -3.44424e-01 -1.04203e-01  9.93515e-02
       O  8.43456e-01  2.61512e-01 -1.88982e-01
       H -5.56697e-02  7.67236e-01 -6.88044e-01
       H -3.94962e-01 -1.00782e+00  6.85478e-01
       L  1.96261e+00  7.36619e-01 -1.01733e-01
       L  8.63195e-01 -1.25514e+00 -1.15546e+00
6
# CELL(abcABC):  459.05226   459.05226   459.05226    90.00000    90.00000    90.00000  Step:           7  Bead:       0 x_centroid{angstrom}  cell{atomic_unit}
       C -3.45453e-01 -1.03058e-01  1.02320e-01
       O  8.43488e-01  2.61505e-01 -1.90122e-01
       H -4.91784e-02  7.64946e-01 -6.95513e-01
       H -3.90045e-01 -1.01901e+00  6.75706e-01
       L  2.35335e+00  7.88227e-01 -3.70448e-02
       L  1.08002e+00 -1.40043e+00 -1.29465e+00
6
# CELL(abcABC):  459.05226   459.05226   459.05226    90.00000    90.00000    90.00000  Step:           8  Bead:       0 x_centroid{angstrom}  cell{atomic_unit}
       C -3.46404e-01 -1.01905e-01  1.05266e-01
       O  8.43423e-01  2.61426e-01 -1.91348e-01
       H -4.21699e-02  7.65655e-01 -7.03743e-01
       H -3.84939e-01 -1.03216e+00  6.68336e-01
       L  2.69870e+00  8.08757e-01  3.17750e-02
       L  1.22471e+00 -1.50207e+00 -1.44704e+00
6
# CELL(abcABC):  459.05226   459.05226   459.05226    90.00000    90.00000    90.00000  Step:           9  Bead:       0 x_centroid{angstrom}  cell{atomic_unit}
       C -3.46985e-01 -1.00936e-01  1.08211e-01
       O  8.42982e-01  2.61490e-01 -1.92541e-01
       H -3.37662e-02  7.66458e-01 -7.13822e-01
       H -3.79741e-01 -1.04545e+00  6.62321e-01
       L  3.07221e+00  7.14421e-01  3.74511e-02
       L  1.41728e+00 -1.52782e+00 -1.54200e+00
6
# CELL(abcABC):  459.05226   459.05226   459.05226    90.00000    90.00000    90.00000  Step:          10  Bead:       0 x_centroid{angstrom}  cell{atomic_unit}
       C -3.47409e-01 -1.00345e-01  1.11367e-01
       O  8.42239e-01  2.61713e-01 -1.93903e-01
       H -2.19985e-02  7.68373e-01 -7.23880e-01
       H -3.74961e-01 -1.05789e+00  6.56398e-01
       L  3.45273e+00  6.35046e-01  7.23382e-02
       L  1.60480e+00 -1.59025e+00 -1.60273e+00
6
# CELL(abcABC):  459.05226   459.05226   459.05226    90.00000    90.00000    90.00000  Step:          11  Bead:       0 x_centroid{angstrom}  cell{atomic_unit}
       C -3.47875e-01 -9.98769e-02  1.14467e-01
       O  8.41258e-01  2.61890e-01 -1.95171e-01
       H -6.83338e-03  7.70477e-01 -7.34695e-01
       H -3.69303e-01 -1.06830e+00  6.50413e-01
       L  3.81063e+00  5.58926e-01  1.26906e-01
       L  1.77225e+00 -1.63167e+00 -1.66886e+00
6
# CELL(abcABC):  459.05226   459.05226   459.05226    90.00000    90.00000    90.00000  Step:          12  Bead:       0 x_centroid{angstrom}  cell{atomic_unit}
       C -3.48591e-01 -9.96581e-02  1.17572e-01
       O  8.40077e-01  2.62066e-01 -1.96508e-01
       H  1.34866e-02  7.73826e-01 -7.44527e-01
       H -3.62572e-01 -1.07699e+00  6.44483e-01
       L  4.11224e+00  4.75881e-01  1.49046e-01
       L  1.90459e+00 -1.68466e+00 -1.72363e+00
6
# CELL(abcABC):  459.05226   459.05226   459.05226    90.00000    90.00000    90.00000  Step:          13  Bead:       0 x_centroid{angstrom}  cell{atomic_unit}
       C -3.49537e-01 -9.96708e-02  1.20896e-01
       O  8.38672e-01  2.62314e-01 -1.98103e-01
       H  3.97972e-02  7.78298e-01 -7.54151e-01
       H -3.55508e-01 -1.08522e+00  6.39792e-01
       L  4.37986e+00  4.55964e-01  1.85340e-01
       L  1.99708e+00 -1.70118e+00 -1.70124e+00
6
# CELL(abcABC):  459.05226   459.05226   459.05226    90.00000    90.00000    90.00000  Step:          14  Bead:       0 x_centroid{angstrom}  cell{atomic_unit}
       C -3.50569e-01 -1.00112e-01  1.24170e-01
       O  8.36831e-01  2.62797e-01 -1.99755e-01
       H  7.38123e-02  7.84506e-01 -7.63700e-01
       H -3.48142e-01 -1.09379e+00  6.36491e-01
       L  4.59069e+00  3.95186e-01  2.90878e-01
       L  2.07109e+00 -1.71352e+00 -1.71768e+00
6
# CELL(abcABC):  459.05226   459.05226   459.05226    90.00000    90.00000    90.00000  Step:          15  Bead:       0 x_centroid{angstrom}  cell{atomic_unit}
       C -3.51990e-01 -1.01482e-01  1.27425e-01
       O  8.34675e-01  2.63770e-01 -2.01525e-01
       H  1.15485e-01  7.92447e-01 -7.71636e-01
       H -3.38854e-01 -1.10086e+00  6.33668e-01
       L  4.82201e+00  3.55720e-01  3.99369e-01
       L  2.16238e+00 -1.68278e+00 -1.71574e+00
6
# CELL(abcABC):  459.05226   459.05226   459.05226    90.00000    90.00000    90.00000  Step:          16  Bead:       0 x_centroid{angstrom}  cell{atomic_unit}
       C -3.54031e-01 -1.03359e-01  1.31070e-01
       O  8.32367e-01  2.64887e-01 -2.03546e-01
       H  1.66942e-01  8.02863e-01 -7.80460e-01
       H -3.29482e-01 -1.10659e+00  6.31132e-01
       L  4.98938e+00  2.73839e-01  4.25904e-01
       L  2.25564e+00 -1.67787e+00 -1.72532e+00
6
# CELL(abcABC):  459.05226   459.05226   459.05226    90.00000    90.00000    90.00000  Step:          17  Bead:       0 x_centroid{angstrom}  cell{atomic_unit}
       C -3.56423e-01 -1.06147e-01  1.35119e-01
       O  8.29804e-01  2.66409e-01 -2.05930e-01
       H  2.26692e-01  8.13744e-01 -7.88061e-01
       H -3.20125e-01 -1.10839e+00  6.28297e-01
       L  5.09557e+00  2.44113e-01  4.81794e-01
       L  2.28184e+00 -1.67946e+00 -1.69282e+00
6
# CELL(abcABC):  459.05226   459.05226   459.05226    90.00000    90.00000    90.00000  Step:          18  Bead:       0 x_centroid{angstrom}  cell{atomic_unit}
       C -3.59298e-01 -1.09845e-01  1.39459e-01
       O  8.27149e-01  2.68316e-01 -2.08549e-01
       H  2.93997e-01  8.28452e-01 -7.95406e-01
       H -3.11087e-01 -1.10931e+00  6.25445e-01
       L  5.15150e+00  2.10339e-01  4.76513e-01
       L  2.33328e+00 -1.63938e+00 -1.60109e+00
6
# CELL(abcABC):  459.05226   459.05226   459.05226    90.00000    90.00000    90.00000  Step:          19  Bead:       0 x_centroid{angstrom}  cell{atomic_unit}
       C -3.62240e-01 -1.14018e-01  1.44316e-01
       O  8.24076e-01  2.70345e-01 -2.11529e-01
       H  3.68504e-01  8.46541e-01 -8.03894e-01
       H -3.01779e-01 -1.10988e+00  6.23277e-01
       L  5.14347e+00  2.04175e-01  4.84998e-01
       L  2.39039e+00 -1.62191e+00 -1.47942e+00
6
# CELL(abcABC):  459.05226   459.05226   459.05226    90.00000    90.00000    90.00000  Step:          20  Bead:       0 x_centroid{angstrom}  cell{atomic_unit}
       C -3.65291e-01 -1.18489e-01  1.49679e-01
       O  8.20861e-01  2.72296e-01 -2.14878e-01
       H  4.46815e-01  8.69972e-01 -8.15077e-01
       H -2.92719e-01 -1.11101e+00  6.23613e-01
       L  5.11746e+00  1.90009e-01  4.95698e-01
       L  2.42487e+00 -1.61501e+00 -1.29517e+00
6
# CELL(abcABC):  459.05226   459.05226   459.05226    90.00000    90.00000    90.00000  Step:          21  Bead:       0 x_centroid{angstrom}  cell{atomic_unit}
       C -3.68388e-01 -1.23187e-01  1.54968e-01
       O  8.17458e-01  2.74014e-01 -2.18000e-01
       H  5.28228e-01  8.98916e-01 -8.30171e-01
       H -2.83229e-01 -1.11122e+00  6.25132e-01
       L  5.11339e+00  1.85779e-01  4.87072e-01
       L  2.48030e+00 -1.63250e+00 -1.08209e+00
6
# CELL(abcABC):  459.05226   459.05226   459.05226    90.00000    90.00000    90.00000  Step:          22  Bead:       0 x_centroid{angstrom}  cell{atomic_unit}
       C -3.71571e-01 -1.28016e-01  1.60159e-01
       O  8.14043e-01  2.75452e-01 -2.20985e-01
       H  6.10770e-01  9.33912e-01 -8.48039e-01
       H -2.73583e-01 -1.11149e+00  6.28392e-01
       L  5.03419e+00  1.76500e-01  5.21973e-01
       L  2.47911e+00 -1.65662e+00 -8.72976e-01
6
# CELL(abcABC):  459.05226   459.05226   459.05226    90.00000    90.00000    90.00000  Step:          23  Bead:       0 x_centroid{angstrom}  cell{atomic_unit}
       C -3.74922e-01 -1.33093e-01  1.65317e-01
       O  8.10635e-01  2.76838e-01 -2.23967e-01
       H  6.95037e-01  9.73203e-01 -8.67028e-01
       H -2.63721e-01 -1.11231e+00  6.33144e-01
       L  4.86691e+00  1.60937e-01  5.27537e-01
       L  2.45197e+00 -1.60089e+00 -6.78887e-01
6
# CELL(abcABC):  459.05226   459.05226   459.05226    90.00000    90.00000    90.00000  Step:          24  Bead:       0 x_centroid{angstrom}  cell{atomic_unit}
       C -3.78053e-01 -1.38052e-01  1.70429e-01
       O  8.07026e-01  2.78190e-01 -2.26991e-01
       H  7.78231e-01  1.01213e+00 -8.84776e-01
       H -2.52142e-01 -1.11363e+00  6.37857e-01
       L  4.62667e+00  1.40413e-01  5.58507e-01
       L  2.34959e+00 -1.53532e+00 -4.83236e-01
6
# CELL(abcABC):  459.05226   459.05226   459.05226    90.00000    90.00000    90.00000  Step:          25  Bead:       0 x_centroid{angstrom}  cell{atomic_unit}
       C -3.80983e-01 -1.42706e-01  1.74867e-01
       O  8.03428e-01  2.79497e-01 -2.29926e-01
       H  8.59453e-01  1.04797e+00 -8.96663e-01
       H -2.41145e-01 -1.11483e+00  6.43299e-01
       L  4.37611e+00  1.44875e-01  6.05938e-01
       L  2.25593e+00 -1.39262e+00 -2.61711e-01
6
# CELL(abcABC):  459.05226   459.05226   459.05226    90.00000    90.00000    90.00000  Step:          26  Bead:       0 x_centroid{angstrom}  cell{atomic_unit}
       C -3.83617e-01 -1.46800e-01  1.78754e-01
       O  7.99744e-01  2.80598e-01 -2.32962e-01
       H  9.36512e-01  1.07987e+00 -9.01610e-01
       H -2.28102e-01 -1.11553e+00  6.49944e-01
       L  4.07471e+00  1.95967e-01  7.00982e-01
       L  2.13604e+00 -1.25109e+00 -5.33758e-02
6
# CELL(abcABC):  459.05226   459.05226   459.05226    90.00000    90.00000    90.00000  Step:          27  Bead:       0 x_centroid{angstrom}  cell{atomic_unit}
       C -3.86396e-01 -1.50334e-01  1.82196e-01
       O  7.96348e-01  2.81701e-01 -2.36226e-01
       H  1.00905e+00  1.10437e+00 -8.98864e-01
       H -2.13365e-01 -1.11552e+00  6.57848e-01
       L  3.70832e+00  2.04672e-01  7.59621e-01
       L  2.01676e+00 -1.08001e+00  1.87305e-01
6
# CELL(abcABC):  459.05226   459.05226   459.05226    90.00000    90.00000    90.00000  Step:          28  Bead:       0 x_centroid{angstrom}  cell{atomic_unit}
       C -3.89091e-01 -1.53465e-01  1.85110e-01
       O  7.93185e-01  2.83102e-01 -2.39667e-01
       H  1.07542e+00  1.12040e+00 -8.87405e-01
       H -1.97181e-01 -1.11657e+00  6.66126e-01
       L  3.33471e+00  2.34952e-01  8.13463e-01
       L  1.97165e+00 -9.34935e-01  4.21269e-01
6
# CELL(abcABC):  459.05226   459.05226   459.05226    90.00000    90.00000    90.00000  Step:          29  Bead:       0 x_centroid{angstrom}  cell{atomic_unit}
       C -3.91574e-01 -1.56363e-01  1.87704e-01
       O  7.90204e-01  2.84778e-01 -2.43376e-01
       H  1.13377e+00  1.12861e+00 -8.67919e-01
       H -1.78383e-01 -1.11694e+00  6.74442e-01
       L  2.99058e+00  2.52339e-01  9.13483e-01
       L  1.86242e+00 -8.23718e-01  6.29395e-01
6
# CELL(abcABC):  459.05226   459.05226   459.05226    90.00000    90.00000    90.00000  Step:          30  Bead:       0 x_centroid{angstrom}  cell{atomic_unit}
       C -3.94049e-01 -1.58806e-01  1.90142e-01
       O  7.87719e-01  2.86720e-01 -2.47446e-01
       H  1.18252e+00  1.12719e+00 -8.41373e-01
       H -1.57899e-01 -1.11731e+00  6.83235e-01
       L  2.57053e+00  2.59285e-01  1.06649e+00
       L  1.73628e+00 -6.79214e-01  8.53614e-01
6
# CELL(abcABC):  459.05226   459.05226   459.05226    90.00000    90.00000    90.00000  Step:          31  Bead:       0 x_centroid{angstrom}  cell{atomic_unit}
       C -3.96459e-01 -1.60921e-01  1.92017e-01
       O  7.85621e-01  2.88846e-01 -2.51493e-01
       H  1.22206e+00  1.11805e+00 -8.07572e-01
       H -1.35104e-01 -1.11680e+00  6.91106e-01
       L  2.13830e+00  2.51874e-01  1.23038e+00
       L  1.59001e+00 -4.95223e-01  1.10113e+00
6
# CELL(abcABC):  459.05226   459.05226   459.05226    90.00000    90.00000    90.00000  Step:          32  Bead:       0 x_centroid{angstrom}  cell{atomic_unit}
       C -3.98819e-01 -1.62468e-01  1.93569e-01
       O  7.84016e-01  2.90968e-01 -2.55682e-01
       H  1.25214e+00  1.10034e+00 -7.67379e-01
       H -1.11234e-01 -1.11448e+00  6.98701e-01
       L  1.72281e+00  2.61603e-01  1.38648e+00
       L  1.36272e+00 -2.67311e-01  1.33639e+00
6
# CELL(abcABC):  459.05226   459.05226   459.05226    90.00000    90.00000    90.00000  Step:          33  Bead:       0 x_centroid{angstrom}  cell{atomic_unit}
       C -4.01143e-01 -1.63654e-01  1.94446e-01
       O  7.82889e-01  2.93122e-01 -2.59596e-01
       H  1.27388e+00  1.07572e+00 -7.22228e-01
       H -8.70271e-02 -1.11003e+00  7.05038e-01
       L  1.27175e+00  2.50175e-01  1.57681e+00
       L  1.13337e+00 -3.34969e-02  1.50961e+00
6
# CELL(abcABC):  459.05226   459.05226   459.05226    90.00000    90.00000    90.00000  Step:          34  Bead:       0 x_centroid{angstrom}  cell{atomic_unit}
       C -4.03015e-01 -1.64706e-01  1.95517e-01
       O  7.82050e-01  2.95388e-01 -2.63830e-01
       H  1.28578e+00  1.04618e+00 -6.73083e-01
       H -6.29197e-02 -1.10405e+00  7.10164e-01
       L  8.18789e-01  2.65604e-01  1.77778e+00
       L  8.82339e-01  1.85423e-01  1.63157e+00
6
# CELL(abcABC):  459.05226   459.05226   459.05226    90.00000    90.00000    90.00000  Step:          35  Bead:       0 x_centroid{angstrom}  cell{atomic_unit}
       C -4.04519e-01 -1.65468e-01  1.96400e-01
       O  7.81490e-01  2.97384e-01 -2.67934e-01
       H  1.28957e+00  1.01602e+00 -6.23756e-01
       H -3.95228e-02 -1.09660e+00  7.15293e-01
       L  3.91123e-01  2.63935e-01  1.98130e+00
       L  6.26712e-01  3.62367e-01  1.72142e+00
6
# CELL(abcABC):  459.05226   459.05226   459.05226    90.00000    90.00000    90.00000  Step:          36  Bead:       0 x_centroid{angstrom}  cell{atomic_unit}
       C -4.05635e-01 -1.65943e-01  1.97060e-01
       O  7.81032e-01  2.98902e-01 -2.71733e-01
       H  1.28843e+00  9.88259e-01 -5.75493e-01
       H -1.74366e-02 -1.08734e+00  7.19375e-01
       L -3.26459e-02  2.19349e-01  2.13417e+00
       L  3.76778e-01  5.29302e-01  1.74896e+00
6
# CELL(abcABC):  459.05226   459.05226   459.05226    90.00000    90.00000    90.00000  Step:          37  Bead:       0 x_centroid{angstrom}  cell{atomic_unit}
       C -4.06202e-01 -1.65906e-01  1.97219e-01
       O  7.80322e-01  2.99458e-01 -2.74899e-01
       H  1.28564e+00  9.68724e-01 -5.30269e-01
       H  3.76288e-03 -1.07710e+00  7.22423e-01
       L -4.74756e-01  1.44042e-01  2.27132e+00
       L  1.04829e-01  6.52970e-01  1.75784e+00
6
# CELL(abcABC):  459.05226   459.05226   459.05226    90.00000    90.00000    90.00000  Step:          38  Bead:       0 x_centroid{angstrom}  cell{atomic_unit}
       C -4.06207e-01 -1.65746e-01  1.97272e-01
       O  7.79096e-01  2.99032e-01 -2.77650e-01
       H  1.28636e+00  9.62558e-01 -4.89698e-01
       H  2.29359e-02 -1.06607e+00  7.24825e-01
       L -8.80422e-01  2.67504e-02  2.40520e+00
       L -1.75025e-01  7.81091e-01  1.76072e+00
6
# CELL(abcABC):  459.05226   459.05226   459.05226    90.00000    90.00000    90.00000  Step:          39  Bead:       0 x_centroid{angstrom}  cell{atomic_unit}
       C -4.05686e-01 -1.65447e-01  1.97303e-01
       O  7.77322e-01  2.97597e-01 -2.80067e-01
       H  1.29241e+00  9.70475e-01 -4.54021e-01
       H  3.92089e-02 -1.05477e+00  7.27096e-01
       L -1.30973e+00 -7.91663e-02  2.54039e+00
       L -4.47284e-01  8.88105e-01  1.70843e+00
6
# CELL(abcABC):  459.05226   459.05226   459.05226    90.00000    90.00000    90.00000  Step:          40  Bead:       0 x_centroid{angstrom}  cell{atomic_unit}
       C -4.04791e-01 -1.65107e-01  1.97299e-01
       O  7.75152e-01  2.95249e-01 -2.82181e-01
       H  1.30357e+00  9.92405e-01 -4.22072e-01
       H  5.22287e-02 -1.04349e+00  7.28724e-01
       L -1.80938e+00 -1.98722e-01  2.64691e+00
       L -6.80577e-01  9.93354e-01  1.62220e+00
6
# CELL(abcABC):  459.05226   459.05226   459.05226    90.00000    90.00000    90.00000  Step:          41  Bead:       0 x_centroid{angstrom}  cell{atomic_unit}
       C -4.03279e-01 -1.64616e-01  1.97010e-01
       O  7.72570e-01  2.92072e-01 -2.83795e-01
       H  1.31697e+00  1.02570e+00 -3.93023e-01
       H  6.22007e-02 -1.03219e+00  7.28730e-01
       L -2.25682e+00 -3.23597e-01  2.76095e+00
       L -9.56019e-01  1.10510e+00  1.54073e+00
6
# CELL(abcABC):  459.05226   459.05226   459.05226    90.00000    90.00000    90.00000  Step:          42  Bead:       0 x_centroid{angstrom}  cell{atomic_unit}
       C -4.01362e-01 -1.63753e-01  1.96775e-01
       O  7.70044e-01  2.88288e-01 -2.85291e-01
       H  1.32853e+00  1.06427e+00 -3.65236e-01
       H  6.82730e-02 -1.02096e+00  7.27508e-01
       L -2.67970e+00 -4.89041e-01  2.80834e+00
       L -1.24153e+00  1.22324e+00  1.46436e+00
6
# CELL(abcABC):  459.05226   459.05226   459.05226    90.00000    90.00000    90.00000  Step:          43  Bead:       0 x_centroid{angstrom}  cell{atomic_unit}
       C -3.99228e-01 -1.62502e-01  1.96364e-01
       O  7.67770e-01  2.84275e-01 -2.86580e-01
       H  1.33516e+00  1.10390e+00 -3.39225e-01
       H  7.26550e-02 -1.01178e+00  7.26878e-01
       L -3.09323e+00 -6.01344e-01  2.85001e+00
       L -1.46469e+00  1.32697e+00  1.38799e+00
6
# CELL(abcABC):  459.05226   459.05226   459.05226    90.00000    90.00000    90.00000  Step:          44  Bead:       0 x_centroid{angstrom}  cell{atomic_unit}
       C -3.96576e-01 -1.60889e-01  1.95827e-01
       O  7.65723e-01  2.80267e-01 -2.87787e-01
       H  1.33419e+00  1.14112e+00 -3.13263e-01
       H  7.48449e-02 -1.00460e+00  7.26524e-01
       L -3.42309e+00 -7.51290e-01  2.88887e+00
       L -1.70929e+00  1.46807e+00  1.23187e+00
6
# CELL(abcABC):  459.05226   459.05226   459.05226    90.00000    90.00000    90.00000  Step:          45  Bead:       0 x_centroid{angstrom}  cell{atomic_unit}
       C -3.93516e-01 -1.59115e-01  1.95396e-01
       O  7.64057e-01  2.76548e-01 -2.89015e-01
       H  1.32520e+00  1.17359e+00 -2.88071e-01
       H  7.40803e-02 -9.99123e-01  7.26097e-01
       L -3.71881e+00 -9.44794e-01  2.83757e+00
       L -1.93604e+00  1.56266e+00  1.04502e+00
6
# CELL(abcABC):  459.05226   459.05226   459.05226    90.00000    90.00000    90.00000  Step:          46  Bead:       0 x_centroid{angstrom}  cell{atomic_unit}
       C -3.90182e-01 -1.57146e-01  1.95367e-01
       O  7.62821e-01  2.73287e-01 -2.90374e-01
       H  1.30916e+00  1.19886e+00 -2.64746e-01
       H  7.02323e-02 -9.96059e-01  7.24785e-01
       L -3.97876e+00 -1.06697e+00  2.79584e+00
       L -2.07990e+00  1.63817e+00  8.94952e-01
6
# CELL(abcABC):  459.05226   459.05226   459.05226    90.00000    90.00000    90.00000  Step:          47  Bead:       0 x_centroid{angstrom}  cell{atomic_unit}
       C -3.86381e-01 -1.54871e-01  1.95693e-01
       O  7.62012e-01  2.70556e-01 -2.91879e-01
       H  1.28339e+00  1.21569e+00 -2.43135e-01
       H  6.37411e-02 -9.96593e-01  7.23315e-01
       L -4.16644e+00 -1.21654e+00  2.75252e+00
       L -2.21908e+00  1.65633e+00  7.21125e-01
6
# CELL(abcABC):  459.05226   459.05226   459.05226    90.00000    90.00000    90.00000  Step:          48  Bead:       0 x_centroid{angstrom}  cell{atomic_unit}
       C -3.82292e-01 -1.51796e-01  1.95902e-01
       O  7.61684e-01  2.68028e-01 -2.93309e-01
       H  1.24944e+00  1.22346e+00 -2.22542e-01
       H  5.43440e-02 -1.00080e+00  7.23070e-01
       L -4.35281e+00 -1.30234e+00  2.66834e+00
       L -2.32912e+00  1.61550e+00  5.33909e-01
6
# CELL(abcABC):  459.05226   459.05226   459.05226    90.00000    90.00000    90.00000  Step:          49  Bead:       0 x_centroid{angstrom}  cell{atomic_unit}
       C -3.78029e-01 -1.48706e-01  1.96271e-01
       O  7.62037e-01  2.66215e-01 -2.94697e-01
       H  1.20623e+00  1.22201e+00 -2.05548e-01
       H  4.12517e-02 -1.00734e+00  7.23906e-01
       L -4.48278e+00 -1.31669e+00  2.53951e+00
       L -2.41471e+00  1.51895e+00  2.91392e-01
6
# CELL(abcABC):  459.05226   459.05226   459.05226    90.00000    90.00000    90.00000  Step:          50  Bead:       0 x_centroid{angstrom}  cell{atomic_unit}
       C -3.73879e-01 -1.45302e-01  1.96796e-01
       O  7.62925e-01  2.64870e-01 -2.95933e-01
       H  1.15651e+00  1.21274e+00 -1.92533e-01
       H  2.74817e-02 -1.01720e+00  7.24463e-01
       L -4.59632e+00 -1.32463e+00  2.35457e+00
       L -2.39758e+00  1.38260e+00  8.20180e-02
6
# CELL(abcABC):  459.05226   459.05226   459.05226    90.00000    90.00000    90.00000  Step:          51  Bead:       0 x_centroid{angstrom}  cell{atomic_unit}
       C -3.69677e-01 -1.41799e-01  1.97489e-01
       O  7.64345e-01  2.63986e-01 -2.97104e-01
       H  1.10104e+00  1.19756e+00 -1.81652e-01
       H  1.04011e-02 -1.02963e+00  7.24104e-01
       L -4.66077e+00 -1.32167e+00  2.19193e+00
       L -2.43529e+00  1.19102e+00 -1.04919e-01
6
# CELL(abcABC):  459.05226   459.05226   459.05226    90.00000    90.00000    90.00000  Step:          52  Bead:       0 x_centroid{angstrom}  cell{atomic_unit}
       C -3.65531e-01 -1.38260e-01  1.98388e-01
       O  7.66228e-01  2.63495e-01 -2.98220e-01
       H  1.04126e+00  1.17797e+00 -1.73074e-01
       H -9.08500e-03 -1.04431e+00  7.22722e-01
       L -4.69747e+00 -1.31915e+00  2.03969e+00
       L -2.45687e+00  9.82268e-01 -2.79069e-01
6
# CELL(abcABC):  459.05226   459.05226   459.05226    90.00000    90.00000    90.00000  Step:          53  Bead:       0 x_centroid{angstrom}  cell{atomic_unit}
       C -3.61638e-01 -1.34288e-01  1.99614e-01
       O  7.68558e-01  2.62890e-01 -2.99233e-01
       H  9.79182e-01  1.15806e+00 -1.67659e-01
       H -3.03595e-02 -1.06201e+00  7.18958e-01
       L -4.69499e+00 -1.29865e+00  1.89282e+00
       L -2.48447e+00  7.44718e-01 -4.57762e-01
6
# CELL(abcABC):  459.05226   459.05226   459.05226    90.00000    90.00000    90.00000  Step:          54  Bead:       0 x_centroid{angstrom}  cell{atomic_unit}
       C -3.57955e-01 -1.30065e-01  2.00813e-01
       O  7.71256e-01  2.61959e-01 -2.99977e-01
       H  9.15406e-01  1.14090e+00 -1.64229e-01
       H -5.33113e-02 -1.08020e+00  7.13194e-01
       L -4.66803e+00 -1.33479e+00  1.72566e+00
       L -2.50102e+00  4.44465e-01 -5.59401e-01
6
# CELL(abcABC):  459.05226   459.05226   459.05226    90.00000    90.00000    90.00000  Step:          55  Bead:       0 x_centroid{angstrom}  cell{atomic_unit}
       C -3.54390e-01 -1.25783e-01  2.02253e-01
       O  7.74114e-01  2.60420e-01 -3.00589e-01
       H  8.52408e-01  1.13270e+00 -1.62872e-01
       H -7.82065e-02 -1.09838e+00  7.04555e-01
       L -4.59340e+00 -1.44111e+00  1.51464e+00
       L -2.50048e+00  1.45374e-01 -6.61694e-01
6
# CELL(abcABC):  459.05226   459.05226   459.05226    90.00000    90.00000    90.00000  Step:          56  Bead:       0 x_centroid{angstrom}  cell{atomic_unit}
       C -3.50909e-01 -1.21892e-01  2.04166e-01
       O  7.77145e-01  2.58382e-01 -3.01206e-01
       H  7.89309e-01  1.13631e+00 -1.63732e-01
       H -1.04747e-01 -1.11576e+00  6.92597e-01
       L -4.49920e+00 -1.51441e+00  1.24507e+00
       L -2.48296e+00 -2.11912e-01 -7.14465e-01
6
# CELL(abcABC):  459.05226   459.05226   459.05226    90.00000    90.00000    90.00000  Step:          57  Bead:       0 x_centroid{angstrom}  cell{atomic_unit}
       C -3.47509e-01 -1.18327e-01  2.06324e-01
       O  7.80170e-01  2.55847e-01 -3.01673e-01
       H  7.26846e-01  1.15075e+00 -1.66912e-01
       H -1.30930e-01 -1.13221e+00  6.77631e-01
       L -4.33687e+00 -1.60226e+00  9.84518e-01
       L -2.45955e+00 -5.87383e-01 -7.42476e-01
6
# CELL(abcABC):  459.05226   459.05226   459.05226    90.00000    90.00000    90.00000  Step:          58  Bead:       0 x_centroid{angstrom}  cell{atomic_unit}
       C -3.44464e-01 -1.15084e-01  2.08569e-01
       O  7.83334e-01  2.52948e-01 -3.01852e-01
       H  6.65319e-01  1.17406e+00 -1.71862e-01
       H -1.56013e-01 -1.14788e+00  6.58835e-01
       L -4.16816e+00 -1.68204e+00  7.02536e-01
       L -2.42836e+00 -9.48713e-01 -7.70655e-01
6
# CELL(abcABC):  459.05226   459.05226   459.05226    90.00000    90.00000    90.00000  Step:          59  Bead:       0 x_centroid{angstrom}  cell{atomic_unit}
       C -3.41646e-01 -1.12328e-01  2.11073e-01
       O  7.86560e-01  2.50203e-01 -3.01780e-01
       H  6.05975e-01  1.19990e+00 -1.79889e-01
       H -1.81608e-01 -1.16277e+00  6.36075e-01
       L -3.96652e+00 -1.74240e+00  4.02245e-01
       L -2.35762e+00 -1.31472e+00 -8.12109e-01
6
# CELL(abcABC):  459.05226   459.05226   459.05226    90.00000    90.00000    90.00000  Step:          60  Bead:       0 x_centroid{angstrom}  cell{atomic_unit}
       C -3.39302e-01 -1.10394e-01  2.13761e-01
       O  7.89800e-01  2.47997e-01 -3.01562e-01
       H  5.52029e-01  1.22515e+00 -1.91760e-01
       H -2.07199e-01 -1.17587e+00  6.12644e-01
       L -3.75347e+00 -1.73098e+00  1.02584e-01
       L -2.26216e+00 -1.66404e+00 -8.69690e-01
6
# CELL(abcABC):  459.05226   459.05226   459.05226    90.00000    90.00000    90.00000  Step:          61  Bead:       0 x_centroid{angstrom}  cell{atomic_unit}
       C -3.37075e-01 -1.09034e-01  2.17000e-01
       O  7.92788e-01  2.46263e-01 -3.01378e-01
       H  5.04140e-01  1.24628e+00 -2.07999e-01
       H -2.33470e-01 -1.18553e+00  5.87578e-01
       L -3.49941e+00 -1.69025e+00 -2.31158e-01
       L -2.14610e+00 -1.97361e+00 -9.10593e-01
6
# CELL(abcABC):  459.05226   459.05226   459.05226    90.00000    90.00000    90.00000  Step:          62  Bead:       0 x_centroid{angstrom}  cell{atomic_unit}
       C -3.35276e-01 -1.08149e-01  2.20444e-01
       O  7.95695e-01  2.45172e-01 -3.01026e-01
       H  4.63109e-01  1.26124e+00 -2.27402e-01
       H -2.60233e-01 -1.19356e+00  5.60533e-01
       L -3.22043e+00 -1.69116e+00 -5.45051e-01
       L -2.01240e+00 -2.27395e+00 -9.37073e-01
6
# CELL(abcABC):  459.05226   459.05226   459.05226    90.00000    90.00000    90.00000  Step:          63  Bead:       0 x_centroid{angstrom}  cell{atomic_unit}
       C -3.33639e-01 -1.07489e-01  2.24244e-01
       O  7.98366e-01  2.44596e-01 -3.00635e-01
       H  4.29413e-01  1.26796e+00 -2.49676e-01
       H -2.88714e-01 -1.19883e+00  5.31487e-01
       L -2.93048e+00 -1.69239e+00 -8.57071e-01
       L -1.83460e+00 -2.59708e+00 -9.49781e-01
6
# CELL(abcABC):  459.05226   459.05226   459.05226    90.00000    90.00000    90.00000  Step:          64  Bead:       0 x_centroid{angstrom}  cell{atomic_unit}
       C -3.32131e-01 -1.07253e-01  2.28235e-01
       O  8.00588e-01  2.44799e-01 -2.99951e-01
       H  4.04001e-01  1.26583e+00 -2.75834e-01
       H -3.16806e-01 -1.20257e+00  4.99425e-01
       L -2.61213e+00 -1.67992e+00 -1.16654e+00
       L -1.64312e+00 -2.88096e+00 -1.00151e+00
6
# CELL(abcABC):  459.05226   459.05226   459.05226    90.00000    90.00000    90.00000  Step:          65  Bead:       0 x_centroid{angstrom}  cell{atomic_unit}
       C -3.30609e-01 -1.07462e-01  2.32415e-01
       O  8.02201e-01  2.45846e-01 -2.99303e-01
       H  3.86974e-01  1.25373e+00 -3.03446e-01
       H -3.43832e-01 -1.20446e+00  4.67117e-01
       L -2.27319e+00 -1.67526e+00 -1.42382e+00
       L -1.41761e+00 -3.14560e+00 -1.05487e+00
6
# CELL(abcABC):  459.05226   459.05226   459.05226    90.00000    90.00000    90.00000  Step:          66  Bead:       0 x_centroid{angstrom}  cell{atomic_unit}
       C -3.29314e-01 -1.08204e-01  2.36693e-01