6
# CELL(abcABC):  459.05226   459.05226   459.05226    90.00000    90.00000    90.00000  Step:           0  Bead:       0 x_centroid{angstrom}  cell{atomic_unit}
       C -3.39887e-01 -1.13437e-01  8.06659e-02
       O  8.43483e-01  2.62672e-01 -1.81512e-01
       H -7.35799e-02  8.16467e-01 -6.61432e-01
       H -4.30016e-01 -9.65701e-01  7.62278e-01
       L  0.00000e+00  0.00000e+00  0.00000e+00
       L  0.00000e+00  0.00000e+00  0.00000e+00
6
# CELL(abcABC):  459.05226   459.05226   459.05226    90.00000    90.00000    90.00000  Step:           1  Bead:       0 x_centroid{angstrom}  cell{atomic_unit}
       C -3.41944e-01 -1.13877e-01  7.92293e-02
       O  8.44942e-01  2.63608e-01 -1.79671e-01
       H -7.86097e-02  8.19705e-01 -6.70398e-01
       H -4.23704e-01 -9.78616e-01  7.59316e-01
       L  3.60657e-01  3.63612e-01 -3.92283e-01
       L -2.14357e-01 -2.75456e-01  7.00605e-02
6
# CELL(abcABC):  459.05226   459.05226   459.05226    90.00000    90.00000    90.00000  Step:           2  Bead:       0 x_centroid{angstrom}  cell{atomic_unit}
       C -3.43945e-01 -1.14307e-01  7.77239e-02
       O  8.46354e-01  2.64493e-01 -1.77826e-01
       H -8.26286e-02  8.22790e-01 -6.78285e-01
       H -4.18358e-01 -9.90649e-01  7.56042e-01
       L  7.25769e-01  7.05370e-01 -8.25169e-01
       L -4.00269e-01 -5.57838e-01  1.32979e-01
6
# CELL(abcABC):  459.05226   459.05226   459.05226    90.00000    90.00000    90.00000  Step:           3  Bead:       0 x_centroid{angstrom}  cell{atomic_unit}
       C -3.45904e-01 -1.14946e-01  7.60794e-02
       O  8.47744e-01  2.65521e-01 -1.75884e-01
       H -8.61128e-02  8.25029e-01 -6.85178e-01
       H -4.13756e-01 -1.00167e+00  7.51946e-01
       L  1.14735e+00  1.03528e+00 -1.31558e+00
       L -5.32493e-01 -7.40756e-01  1.90726e-01
6
# CELL(abcABC):  459.05226   459.05226   459.05226    90.00000    90.00000    90.00000  Step:           4  Bead:       0 x_centroid{angstrom}  cell{atomic_unit}
       C -3.48173e-01 -1.15555e-01  7.48055e-02
       O  8.49275e-01  2.66537e-01 -1.74302e-01
       H -8.74764e-02  8.26203e-01 -6.89981e-01
       H -4.09823e-01 -1.01178e+00  7.47051e-01
       L  1.61126e+00  1.29938e+00 -1.79988e+00
       L -6.79872e-01 -9.02019e-01  2.52442e-01
6
# CELL(abcABC):  459.05226   459.05226   459.05226    90.00000    90.00000    90.00000  Step:           5  Bead:       0 x_centroid{angstrom}  cell{atomic_unit}
       C -3.50487e-01 -1.16331e-01  7.34006e-02
       O  8.50842e-01  2.67788e-01 -1.72582e-01
       H -8.93745e-02  8.25504e-01 -6.93732e-01
       H -4.05330e-01 -1.02174e+00  7.40443e-01
       L  2.04620e+00  1.51181e+00 -2.26407e+00
       L -9.14442e-01 -1.01557e+00  3.26553e-01
6
# CELL(abcABC):  459.05226   459.05226   459.05226    90.00000    90.00000    90.00000  Step:           6  Bead:       0 x_centroid{angstrom}  cell{atomic_unit}
       C -3.52503e-01 -1.17068e-01  7.20170e-02
       O  8.52127e-01  2.69069e-01 -1.70961e-01
       H -9.02395e-02  8.21823e-01 -6.95016e-01
       H -4.00932e-01 -1.02964e+00  7.32693e-01
       L  2.46826e+00  1.71704e+00 -2.68373e+00
       L -1.18269e+00 -1.14459e+00  3.62025e-01
6
# CELL(abcABC):  459.05226   459.05226   459.05226    90.00000    90.00000    90.00000  Step:           7  Bead:       0 x_centroid{angstrom}  cell{atomic_unit}
       C -3.54287e-01 -1.17759e-01  7.09355e-02
       O  8.53219e-01  2.70251e-01 -1.69455e-01
       H -9.05275e-02  8.16189e-01 -6.95512e-01
       H -3.96795e-01 -1.03460e+00  7.22404e-01
       L  2.88075e+00  1.96994e+00 -3.09250e+00
       L -1.46366e+00 -1.32256e+00  3.65489e-01
6
# CELL(abcABC):  459.05226   459.05226   459.05226    90.00000    90.00000    90.00000  Step:           8  Bead:       0 x_centroid{angstrom}  cell{atomic_unit}
       C -3.55590e-01 -1.18375e-01  6.98320e-02
       O  8.54074e-01  2.71287e-01 -1.67958e-01
       H -9.09979e-02  8.09446e-01 -6.95812e-01
       H -3.94414e-01 -1.03702e+00  7.12300e-01
       L  3.23734e+00  2.19799e+00 -3.46933e+00
       L -1.72328e+00 -1.41320e+00  3.36046e-01
6
# CELL(abcABC):  459.05226   459.05226   459.05226    90.00000    90.00000    90.00000  Step:           9  Bead:       0 x_centroid{angstrom}  cell{atomic_unit}
       C -3.56825e-01 -1.19035e-01  6.87704e-02
       O  8.54906e-01  2.72167e-01 -1.66419e-01
       H -9.14949e-02  8.02873e-01 -6.95803e-01
       H -3.92472e-01 -1.03666e+00  7.00732e-01
       L  3.60337e+00  2.41117e+00 -3.79082e+00
       L -1.97324e+00 -1.43104e+00  2.80572e-01
6
# CELL(abcABC):  459.05226   459.05226   459.05226    90.00000    90.00000    90.00000  Step:          10  Bead:       0 x_centroid{angstrom}  cell{atomic_unit}
       C -3.57698e-01 -1.19867e-01  6.77146e-02
       O  8.55487e-01  2.73091e-01 -1.64832e-01
       H -9.18805e-02  7.95306e-01 -6.95448e-01
       H -3.90970e-01 -1.03396e+00  6.87940e-01
       L  3.92052e+00  2.63977e+00 -4.03854e+00
       L -2.18031e+00 -1.45675e+00  1.97406e-01
6
# CELL(abcABC):  459.05226   459.05226   459.05226    90.00000    90.00000    90.00000  Step:          11  Bead:       0 x_centroid{angstrom}  cell{atomic_unit}
       C -3.58461e-01 -1.20683e-01  6.67301e-02
       O  8.56161e-01  2.73897e-01 -1.63377e-01
       H -9.30192e-02  7.88899e-01 -6.94306e-01
       H -3.91433e-01 -1.03075e+00  6.75562e-01
       L  4.14788e+00  2.92054e+00 -4.19983e+00
       L -2.39820e+00 -1.50941e+00  1.09631e-01
6
# CELL(abcABC):  459.05226   459.05226   459.05226    90.00000    90.00000    90.00000  Step:          12  Bead:       0 x_centroid{angstrom}  cell{atomic_unit}
       C -3.58810e-01 -1.21158e-01  6.56231e-02
       O  8.56517e-01  2.74452e-01 -1.61802e-01
       H -9.35658e-02  7.82093e-01 -6.92769e-01
       H -3.92398e-01 -1.02719e+00  6.62297e-01
       L  4.31281e+00  3.13505e+00 -4.29589e+00
       L -2.53956e+00 -1.51347e+00  7.47892e-02
6
# CELL(abcABC):  459.05226   459.05226   459.05226    90.00000    90.00000    90.00000  Step:          13  Bead:       0 x_centroid{angstrom}  cell{atomic_unit}
       C -3.59035e-01 -1.21581e-01  6.44964e-02
       O  8.56820e-01  2.75064e-01 -1.60271e-01
       H -9.50066e-02  7.74762e-01 -6.90523e-01
       H -3.93081e-01 -1.02464e+00  6.49223e-01
       L  4.46786e+00  3.30797e+00 -4.32892e+00
       L -2.69117e+00 -1.51815e+00 -2.98808e-03
6
# CELL(abcABC):  459.05226   459.05226   459.05226    90.00000    90.00000    90.00000  Step:          14  Bead:       0 x_centroid{angstrom}  cell{atomic_unit}
       C -3.58670e-01 -1.22096e-01  6.30250e-02
       O  8.56799e-01  2.75719e-01 -1.58618e-01
       H -9.70905e-02  7.67512e-01 -6.87428e-01
       H -3.94984e-01 -1.02170e+00  6.37474e-01
       L  4.53838e+00  3.44324e+00 -4.33421e+00
       L -2.83137e+00 -1.53949e+00 -8.36001e-02
6
# CELL(abcABC):  459.05226   459.05226   459.05226    90.00000    90.00000    90.00000  Step:          15  Bead:       0 x_centroid{angstrom}  cell{atomic_unit}
       C -3.57837e-01 -1.22257e-01  6.13314e-02
       O  8.56506e-01  2.76148e-01 -1.56822e-01
       H -1.00540e-01  7.60440e-01 -6.85906e-01
       H -3.96805e-01 -1.01954e+00  6.27627e-01
       L  4.59610e+00  3.50060e+00 -4.28306e+00
       L -2.90643e+00 -1.57874e+00 -1.21015e-01
6
# CELL(abcABC):  459.05226   459.05226   459.05226    90.00000    90.00000    90.00000  Step:          16  Bead:       0 x_centroid{angstrom}  cell{atomic_unit}
       C -3.56317e-01 -1.22239e-01  5.92665e-02
       O  8.55904e-01  2.76431e-01 -1.54849e-01
       H -1.05681e-01  7.54640e-01 -6.84953e-01
       H -4.00166e-01 -1.01845e+00  6.19939e-01
       L  4.54577e+00  3.49484e+00 -4.21307e+00
       L -2.94206e+00 -1.56981e+00 -1.51323e-01
6
# CELL(abcABC):  459.05226   459.05226   459.05226    90.00000    90.00000    90.00000  Step:          17  Bead:       0 x_centroid{angstrom}  cell{atomic_unit}
       C -3.54335e-01 -1.21771e-01  5.72390e-02
       O  8.55279e-01  2.76500e-01 -1.52835e-01
       H -1.13694e-01  7.49424e-01 -6.85914e-01
       H -4.05822e-01 -1.01990e+00  6.13065e-01
       L  4.48421e+00  3.45848e+00 -4.14117e+00
       L -2.93010e+00 -1.53033e+00 -1.78292e-01
6
# CELL(abcABC):  459.05226   459.05226   459.05226    90.00000    90.00000    90.00000  Step:          18  Bead:       0 x_centroid{angstrom}  cell{atomic_unit}
       C -3.51991e-01 -1.21084e-01  5.46351e-02
       O  8.54640e-01  2.76437e-01 -1.50501e-01
       H -1.24785e-01  7.45687e-01 -6.86720e-01
       H -4.12492e-01 -1.02336e+00  6.07747e-01
       L  4.42595e+00  3.37305e+00 -3.99011e+00
       L -2.91654e+00 -1.44574e+00 -1.34366e-01
6
# CELL(abcABC):  459.05226   459.05226   459.05226    90.00000    90.00000    90.00000  Step:          19  Bead:       0 x_centroid{angstrom}  cell{atomic_unit}
       C -3.49360e-01 -1.19974e-01  5.16821e-02
       O  8.54187e-01  2.76150e-01 -1.48017e-01
       H -1.40823e-01  7.42055e-01 -6.87786e-01
       H -4.20567e-01 -1.02842e+00  6.04456e-01
       L  4.29074e+00  3.31439e+00 -3.80084e+00
       L -2.88437e+00 -1.33323e+00 -1.28217e-01
6
# CELL(abcABC):  459.05226   459.05226   459.05226    90.00000    90.00000    90.00000  Step:          20  Bead:       0 x_centroid{angstrom}  cell{atomic_unit}
       C -3.46187e-01 -1.18599e-01  4.89588e-02
       O  8.53591e-01  2.75798e-01 -1.45753e-01
       H -1.61218e-01  7.37723e-01 -6.90423e-01
       H -4.28484e-01 -1.03489e+00  6.03493e-01
       L  4.13448e+00  3.22505e+00 -3.59678e+00
       L -2.76498e+00 -1.23938e+00 -1.25502e-01
6
# CELL(abcABC):  459.05226   459.05226   459.05226    90.00000    90.00000    90.00000  Step:          21  Bead:       0 x_centroid{angstrom}  cell{atomic_unit}
       C -3.42387e-01 -1.17078e-01  4.57493e-02
       O  8.53070e-01  2.75268e-01 -1.43124e-01
       H -1.89185e-01  7.34238e-01 -6.94236e-01
       H -4.37529e-01 -1.04116e+00  6.03676e-01
       L  3.91971e+00  3.14174e+00 -3.36389e+00
       L -2.57556e+00 -1.08445e+00 -9.79211e-02
6
# CELL(abcABC):  459.05226   459.05226   459.05226    90.00000    90.00000    90.00000  Step:          22  Bead:       0 x_centroid{angstrom}  cell{atomic_unit}
       C -3.37654e-01 -1.15429e-01  4.21810e-02
       O  8.52608e-01  2.74581e-01 -1.40175e-01
       H -2.26161e-01  7.31346e-01 -7.00085e-01
       H -4.49610e-01 -1.04701e+00  6.05085e-01
       L  3.68604e+00  2.99030e+00 -3.09955e+00
       L -2.35871e+00 -9.39535e-01 -6.68018e-02
6
# CELL(abcABC):  459.05226   459.05226   459.05226    90.00000    90.00000    90.00000  Step:          23  Bead:       0 x_centroid{angstrom}  cell{atomic_unit}
       C -3.31976e-01 -1.13242e-01  3.82949e-02
       O  8.52191e-01  2.73426e-01 -1.37035e-01
       H -2.73694e-01  7.27719e-01 -7.06032e-01
       H -4.63125e-01 -1.05106e+00  6.07333e-01
       L  3.43830e+00  2.80818e+00 -2.80751e+00
       L -2.11271e+00 -8.43076e-01 -5.73972e-02
6
# CELL(abcABC):  459.05226   459.05226   459.05226    90.00000    90.00000    90.00000  Step:          24  Bead:       0 x_centroid{angstrom}  cell{atomic_unit}
       C -3.25204e-01 -1.10697e-01  3.39458e-02
       O  8.51774e-01  2.71943e-01 -1.33459e-01
       H -3.32290e-01  7.23461e-01 -7.12158e-01
       H -4.78591e-01 -1.05351e+00  6.08359e-01
       L  3.16570e+00  2.56135e+00 -2.51760e+00
       L -1.84359e+00 -7.39030e-01 -4.92283e-02
6
# CELL(abcABC):  459.05226   459.05226   459.05226    90.00000    90.00000    90.00000  Step:          25  Bead:       0 x_centroid{angstrom}  cell{atomic_unit}
       C -3.17821e-01 -1.07763e-01  2.92344e-02
       O  8.51873e-01  2.70122e-01 -1.29594e-01
       H -4.03220e-01  7.17374e-01 -7.18558e-01
       H -4.97222e-01 -1.05335e+00  6.09355e-01
       L  2.86867e+00  2.20748e+00 -2.16607e+00
       L -1.51574e+00 -6.16182e-01 -5.41473e-02
6
# CELL(abcABC):  459.05226   459.05226   459.05226    90.00000    90.00000    90.00000  Step:          26  Bead:       0 x_centroid{angstrom}  cell{atomic_unit}
       C -3.09379e-01 -1.04723e-01  2.38951e-02
       O  8.52142e-01  2.68137e-01 -1.25269e-01
       H -4.88025e-01  7.08892e-01 -7.24187e-01
       H -5.17256e-01 -1.04948e+00  6.09766e-01
       L  2.46370e+00  1.86697e+00 -1.78851e+00
       L -1.15452e+00 -4.89737e-01 -7.71807e-02
6
# CELL(abcABC):  459.05226   459.05226   459.05226    90.00000    90.00000    90.00000  Step:          27  Bead:       0 x_centroid{angstrom}  cell{atomic_unit}
       C -3.00297e-01 -1.01113e-01  1.80764e-02
       O  8.52622e-01  2.65802e-01 -1.20512e-01
       H -5.84092e-01  6.96413e-01 -7.29122e-01
       H -5.37015e-01 -1.04285e+00  6.08339e-01
       L  2.02155e+00  1.57789e+00 -1.39664e+00
       L -7.63987e-01 -3.61795e-01 -1.20825e-01
6
# CELL(abcABC):  459.05226   459.05226   459.05226    90.00000    90.00000    90.00000  Step:          28  Bead:       0 x_centroid{angstrom}  cell{atomic_unit}
       C -2.90326e-01 -9.70626e-02  1.15709e-02
       O  8.53183e-01  2.63099e-01 -1.15394e-01
       H -6.90027e-01  6.79537e-01 -7.30903e-01
       H -5.58779e-01 -1.03124e+00  6.06192e-01
       L  1.60464e+00  1.29696e+00 -1.00039e+00
       L -3.76024e-01 -2.61141e-01 -1.48162e-01
6
# CELL(abcABC):  459.05226   459.05226   459.05226    90.00000    90.00000    90.00000  Step:          29  Bead:       0 x_centroid{angstrom}  cell{atomic_unit}
       C -2.79939e-01 -9.23632e-02  4.71038e-03
       O  8.53975e-01  2.60165e-01 -1.10086e-01
       H -8.04684e-01  6.55470e-01 -7.29472e-01
       H -5.80452e-01 -1.01650e+00  6.02047e-01
       L  1.18871e+00  1.00983e+00 -6.28095e-01
       L  1.06107e-02 -1.64662e-01 -1.41702e-01
6
# CELL(abcABC):  459.05226   459.05226   459.05226    90.00000    90.00000    90.00000  Step:          30  Bead:       0 x_centroid{angstrom}  cell{atomic_unit}
       C -2.69398e-01 -8.71224e-02 -2.79043e-03
       O  8.54915e-01  2.56987e-01 -1.04554e-01
       H -9.21805e-01  6.25158e-01 -7.21808e-01
       H -6.03892e-01 -9.98080e-01  5.95754e-01
       L  8.11151e-01  7.19448e-01 -2.65402e-01
       L  4.43513e-01 -6.71885e-02 -1.46613e-01
6
# CELL(abcABC):  459.05226   459.05226   459.05226    90.00000    90.00000    90.00000  Step:          31  Bead:       0 x_centroid{angstrom}  cell{atomic_unit}
       C -2.59083e-01 -8.14293e-02 -1.09003e-02
       O  8.55958e-01  2.53614e-01 -9.88189e-02
       H -1.03816e+00  5.89177e-01 -7.09203e-01
       H -6.27027e-01 -9.76299e-01  5.88585e-01
       L  4.18112e-01  4.04246e-01  7.01161e-02
       L  8.85268e-01  5.36123e-02 -1.63107e-01
6
# CELL(abcABC):  459.05226   459.05226   459.05226    90.00000    90.00000    90.00000  Step:          32  Bead:       0 x_centroid{angstrom}  cell{atomic_unit}
       C -2.49511e-01 -7.55760e-02 -1.94128e-02
       O  8.57219e-01  2.50233e-01 -9.30370e-02
       H -1.15068e+00  5.48089e-01 -6.91560e-01
       H -6.48613e-01 -9.51217e-01  5.80412e-01
       L  1.14896e-02  1.00624e-01  3.86427e-01
       L  1.32941e+00  2.36933e-01 -1.33566e-01
6
# CELL(abcABC):  459.05226   459.05226   459.05226    90.00000    90.00000    90.00000  Step:          33  Bead:       0 x_centroid{angstrom}  cell{atomic_unit}
       C -2.40932e-01 -6.98302e-02 -2.81000e-02
       O  8.58663e-01  2.46989e-01 -8.73555e-02
       H -1.25694e+00  5.02330e-01 -6.68531e-01
       H -6.67546e-01 -9.22330e-01  5.70544e-01
       L -3.55521e-01 -2.39014e-01  6.75489e-01
       L  1.78891e+00  3.72156e-01 -1.08677e-01
6
# CELL(abcABC):  459.05226   459.05226   459.05226    90.00000    90.00000    90.00000  Step:          34  Bead:       0 x_centroid{angstrom}  cell{atomic_unit}
       C -2.33829e-01 -6.40855e-02 -3.72050e-02
       O  8.60562e-01  2.43861e-01 -8.15142e-02
       H -1.35545e+00  4.52675e-01 -6.40924e-01
       H -6.83863e-01 -8.91356e-01  5.58556e-01
       L -7.55331e-01 -5.61507e-01  9.18844e-01
       L  2.24662e+00  4.91950e-01 -6.30431e-02
6
# CELL(abcABC):  459.05226   459.05226   459.05226    90.00000    90.00000    90.00000  Step:          35  Bead:       0 x_centroid{angstrom}  cell{atomic_unit}
       C -2.28281e-01 -5.84866e-02 -4.65162e-02
       O  8.62928e-01  2.40918e-01 -7.56869e-02
       H -1.44487e+00  4.00921e-01 -6.11042e-01
       H -6.98138e-01 -8.59473e-01  5.46984e-01
       L -1.16313e+00 -9.38211e-01  1.17333e+00
       L  2.73127e+00  6.23512e-01 -5.20032e-02
6
# CELL(abcABC):  459.05226   459.05226   459.05226    90.00000    90.00000    90.00000  Step:          36  Bead:       0 x_centroid{angstrom}  cell{atomic_unit}
       C -2.24654e-01 -5.33590e-02 -5.57278e-02
       O  8.65870e-01  2.38540e-01 -7.00600e-02
       H -1.52420e+00  3.47723e-01 -5.79890e-01
       H -7.08754e-01 -8.29500e-01  5.36134e-01
       L -1.55888e+00 -1.30552e+00  1.40411e+00
       L  3.18342e+00  7.57034e-01 -1.43858e-02
6
# CELL(abcABC):  459.05226   459.05226   459.05226    90.00000    90.00000    90.00000  Step:          37  Bead:       0 x_centroid{angstrom}  cell{atomic_unit}
       C -2.23209e-01 -4.83505e-02 -6.48161e-02
       O  8.69671e-01  2.36284e-01 -6.45074e-02
       H -1.59318e+00  2.94831e-01 -5.49520e-01
       H -7.17364e-01 -8.00395e-01  5.25794e-01
       L -1.94596e+00 -1.64580e+00  1.59051e+00
       L  3.63106e+00  9.33976e-01  3.38020e-02
6
# CELL(abcABC):  459.05226   459.05226   459.05226    90.00000    90.00000    90.00000  Step:          38  Bead:       0 x_centroid{angstrom}  cell{atomic_unit}
       C -2.23478e-01 -4.41243e-02 -7.39542e-02
       O  8.73958e-01  2.34615e-01 -5.89840e-02
       H -1.65180e+00  2.44240e-01 -5.20177e-01
       H -7.23617e-01 -7.73598e-01  5.17605e-01
       L -2.33709e+00 -1.94751e+00  1.74116e+00
       L  4.07773e+00  1.10465e+00 -1.88741e-03
6
# CELL(abcABC):  459.05226   459.05226   459.05226    90.00000    90.00000    90.00000  Step:          39  Bead:       0 x_centroid{angstrom}  cell{atomic_unit}
       C -2.25568e-01 -4.04460e-02 -8.25570e-02
       O  8.78751e-01  2.33279e-01 -5.39440e-02
       H -1.69917e+00  1.97384e-01 -4.91938e-01
       H -7.27425e-01 -7.49346e-01  5.11820e-01
       L -2.75875e+00 -2.18685e+00  1.88508e+00
       L  4.49423e+00  1.30366e+00 -4.44624e-02
6
# CELL(abcABC):  459.05226   459.05226   459.05226    90.00000    90.00000    90.00000  Step:          40  Bead:       0 x_centroid{angstrom}  cell{atomic_unit}
       C -2.28912e-01 -3.70973e-02 -9.09701e-02
       O  8.83739e-01  2.32191e-01 -4.91229e-02
       H -1.73841e+00  1.55167e-01 -4.65999e-01
       H -7.27520e-01 -7.29760e-01  5.09537e-01
       L -3.12719e+00 -2.39809e+00  2.00478e+00
       L  4.87223e+00  1.51879e+00 -4.02342e-02
6
# CELL(abcABC):  459.05226   459.05226   459.05226    90.00000    90.00000    90.00000  Step:          41  Bead:       0 x_centroid{angstrom}  cell{atomic_unit}
       C -2.33622e-01 -3.38036e-02 -9.88562e-02
       O  8.88962e-01  2.31258e-01 -4.46338e-02
       H -1.76864e+00  1.17563e-01 -4.44066e-01
       H -7.24130e-01 -7.16615e-01  5.10256e-01
       L -3.40339e+00 -2.55900e+00  2.10370e+00
       L  5.24023e+00  1.69889e+00 -2.30118e-02
6
# CELL(abcABC):  459.05226   459.05226   459.05226    90.00000    90.00000    90.00000  Step:          42  Bead:       0 x_centroid{angstrom}  cell{atomic_unit}
       C -2.39757e-01 -3.07937e-02 -1.06311e-01
       O  8.94422e-01  2.30566e-01 -4.05339e-02
       H -1.78894e+00  8.50635e-02 -4.25195e-01
       H -7.17445e-01 -7.08993e-01  5.15086e-01
       L -3.63011e+00 -2.68981e+00  2.19491e+00
       L  5.58804e+00  1.81814e+00 -3.06032e-02
6
# CELL(abcABC):  459.05226   459.05226   459.05226    90.00000    90.00000    90.00000  Step:          43  Bead:       0 x_centroid{angstrom}  cell{atomic_unit}
       C -2.46611e-01 -2.81268e-02 -1.12984e-01
       O  8.99718e-01  2.30099e-01 -3.69034e-02
       H -1.80025e+00  5.82246e-02 -4.11154e-01
       H -7.08517e-01 -7.06504e-01  5.22923e-01
       L -3.88032e+00 -2.79760e+00  2.27427e+00
       L  5.82063e+00  1.91611e+00 -7.11835e-02
6
# CELL(abcABC):  459.05226   459.05226   459.05226    90.00000    90.00000    90.00000  Step:          44  Bead:       0 x_centroid{angstrom}  cell{atomic_unit}
       C -2.54148e-01 -2.55146e-02 -1.19013e-01
       O  9.04869e-01  2.29643e-01 -3.36893e-02
       H -1.80334e+00  3.72640e-02 -4.01984e-01
       H -6.97388e-01 -7.09494e-01  5.34523e-01
       L -4.05790e+00 -2.82366e+00  2.34984e+00
       L  6.01267e+00  2.03294e+00 -6.62826e-02
6
# CELL(abcABC):  459.05226   459.05226   459.05226    90.00000    90.00000    90.00000  Step:          45  Bead:       0 x_centroid{angstrom}  cell{atomic_unit}
       C -2.62193e-01 -2.34548e-02 -1.24521e-01
       O  9.09588e-01  2.29391e-01 -3.08049e-02
       H -1.79618e+00  2.36602e-02 -3.97455e-01
       H -6.83585e-01 -7.16546e-01  5.49811e-01
       L -4.22882e+00 -2.74341e+00  2.37291e+00
       L  6.16127e+00  2.16620e+00 -2.57050e-02
6
# CELL(abcABC):  459.05226   459.05226   459.05226    90.00000    90.00000    90.00000  Step:          46  Bead:       0 x_centroid{angstrom}  cell{atomic_unit}
       C -2.70714e-01 -2.19208e-02 -1.29314e-01
       O  9.13859e-01  2.29323e-01 -2.84302e-02
       H -1.77918e+00  1.61958e-02 -3.95802e-01
       H -6.66780e-01 -7.26411e-01  5.67581e-01
       L -4.37083e+00 -2.63519e+00  2.38175e+00
       L  6.18621e+00  2.29986e+00 -4.68309e-02
6
# CELL(abcABC):  459.05226   459.05226   459.05226    90.00000    90.00000    90.00000  Step:          47  Bead:       0 x_centroid{angstrom}  cell{atomic_unit}
       C -2.79128e-01 -2.07687e-02 -1.33359e-01
       O  9.17257e-01  2.29367e-01 -2.63757e-02
       H -1.75246e+00  1.31093e-02 -3.99604e-01
       H -6.47137e-01 -7.37895e-01  5.86965e-01
       L -4.48084e+00 -2.47725e+00  2.40780e+00
       L  6.23365e+00  2.41208e+00 -4.48189e-02
6
# CELL(abcABC):  459.05226   459.05226   459.05226    90.00000    90.00000    90.00000  Step:          48  Bead:       0 x_centroid{angstrom}  cell{atomic_unit}
       C -2.87698e-01 -2.01481e-02 -1.36526e-01
       O  9.19872e-01  2.29589e-01 -2.47727e-02
       H -1.71416e+00  1.59894e-02 -4.07822e-01
       H -6.24766e-01 -7.51868e-01  6.07497e-01
       L -4.57765e+00 -2.24846e+00  2.39537e+00
       L  6.22637e+00  2.49849e+00 -7.11904e-02
6
# CELL(abcABC):  459.05226   459.05226   459.05226    90.00000    90.00000    90.00000  Step:          49  Bead:       0 x_centroid{angstrom}  cell{atomic_unit}
       C -2.96303e-01 -2.02515e-02 -1.38690e-01
       O  9.21560e-01  2.30080e-01 -2.35869e-02
       H -1.66368e+00  2.35683e-02 -4.20430e-01
       H -5.99475e-01 -7.66135e-01  6.27096e-01
       L -4.55717e+00 -1.99422e+00  2.35248e+00
       L  6.15202e+00  2.47310e+00 -8.66373e-02
6
# CELL(abcABC):  459.05226   459.05226   459.05226    90.00000    90.00000    90.00000  Step:          50  Bead:       0 x_centroid{angstrom}  cell{atomic_unit}
       C -3.04910e-01 -2.09223e-02 -1.39781e-01
       O  9.22406e-01  2.30707e-01 -2.30429e-02
       H -1.60298e+00  3.71188e-02 -4.36013e-01
       H -5.71006e-01 -7.81747e-01  6.47132e-01
       L -4.51497e+00 -1.70805e+00  2.25908e+00
       L  6.04545e+00  2.37766e+00 -1.46167e-01
6
# CELL(abcABC):  459.05226   459.05226   459.05226    90.00000    90.00000    90.00000  Step:          51  Bead:       0 x_centroid{angstrom}  cell{atomic_unit}
       C -3.13267e-01 -2.24350e-02 -1.39888e-01
       O  9.22354e-01  2.31669e-01 -2.29354e-02
       H -1.53064e+00  5.55187e-02 -4.55057e-01
       H -5.42938e-01 -7.97534e-01  6.65887e-01
       L -4.37411e+00 -1.37564e+00  2.09614e+00
       L  5.87634e+00  2.30445e+00 -2.50924e-01
6
# CELL(abcABC):  459.05226   459.05226   459.05226    90.00000    90.00000    90.00000  Step:          52  Bead:       0 x_centroid{angstrom}  cell{atomic_unit}
       C -3.20999e-01 -2.47096e-02 -1.38823e-01
       O  9.21354e-01  2.32775e-01 -2.33030e-02
       H -1.45034e+00  7.87517e-02 -4.77138e-01
       H -5.15193e-01 -8.11379e-01  6.81286e-01
       L -4.17958e+00 -1.01169e+00  1.90364e+00
       L  5.63245e+00  2.22966e+00 -3.80467e-01
6
# CELL(abcABC):  459.05226   459.05226   459.05226    90.00000    90.00000    90.00000  Step:          53  Bead:       0 x_centroid{angstrom}  cell{atomic_unit}
       C -3.27981e-01 -2.77462e-02 -1.36727e-01
       O  9.19360e-01  2.33976e-01 -2.39923e-02
       H -1.36202e+00  1.07466e-01 -5.02549e-01
       H -4.88607e-01 -8.23116e-01  6.92816e-01
       L -3.89724e+00 -6.28929e-01  1.66778e+00
       L  5.25004e+00  2.11525e+00 -4.34282e-01
6
# CELL(abcABC):  459.05226   459.05226   459.05226    90.00000    90.00000    90.00000  Step:          54  Bead:       0 x_centroid{angstrom}  cell{atomic_unit}
       C -3.33790e-01 -3.13566e-02 -1.33158e-01
       O  9.16483e-01  2.35183e-01 -2.53828e-02
       H -1.27132e+00  1.40687e-01 -5.31855e-01
       H -4.64337e-01 -8.32604e-01  7.01812e-01
       L -3.60580e+00 -2.79263e-01  1.44138e+00
       L  4.80220e+00  2.01033e+00 -4.58287e-01
6
# CELL(abcABC):  459.05226   459.05226   459.05226    90.00000    90.00000    90.00000  Step:          55  Bead:       0 x_centroid{angstrom}  cell{atomic_unit}
       C -3.37707e-01 -3.58676e-02 -1.28215e-01
       O  9.12509e-01  2.36555e-01 -2.72230e-02
       H -1.18373e+00  1.79553e-01 -5.66874e-01
       H -4.42066e-01 -8.39633e-01  7.07326e-01
       L -3.28098e+00  6.11785e-02  1.17633e+00
       L  4.28387e+00  1.92739e+00 -5.53881e-01
6
# CELL(abcABC):  459.05226   459.05226   459.05226    90.00000    90.00000    90.00000  Step:          56  Bead:       0 x_centroid{angstrom}  cell{atomic_unit}
       C -3.39200e-01 -4.11260e-02 -1.21379e-01
       O  9.07399e-01  2.38039e-01 -2.96316e-02
       H -1.10519e+00  2.23121e-01 -6.11043e-01
       H -4.21597e-01 -8.44207e-01  7.08467e-01
       L -2.91718e+00  3.90856e-01  9.34010e-01
       L  3.71661e+00  1.80527e+00 -6.64579e-01
6
# CELL(abcABC):  459.05226   459.05226   459.05226    90.00000    90.00000    90.00000  Step:          57  Bead:       0 x_centroid{angstrom}  cell{atomic_unit}
       C -3.38195e-01 -4.72448e-02 -1.12775e-01
       O  9.01515e-01  2.39554e-01 -3.23107e-02
       H -1.03998e+00  2.73232e-01 -6.66683e-01
       H -4.05227e-01 -8.45619e-01  7.04322e-01
       L -2.51752e+00  7.34559e-01  6.81473e-01
       L  3.07240e+00  1.75053e+00 -8.08123e-01
6
# CELL(abcABC):  459.05226   459.05226   459.05226    90.00000    90.00000    90.00000  Step:          58  Bead:       0 x_centroid{angstrom}  cell{atomic_unit}
       C -3.34622e-01 -5.42119e-02 -1.02563e-01
       O  8.94804e-01  2.41155e-01 -3.52527e-02
       H -9.86522e-01  3.30138e-01 -7.33485e-01
       H -3.94617e-01 -8.45039e-01  6.96300e-01
       L -2.11842e+00  1.03363e+00  4.95233e-01
       L  2.41936e+00  1.67552e+00 -9.22271e-01
6
# CELL(abcABC):  459.05226   459.05226   459.05226    90.00000    90.00000    90.00000  Step:          59  Bead:       0 x_centroid{angstrom}  cell{atomic_unit}
       C -3.28564e-01 -6.18934e-02 -9.09799e-02
       O  8.87145e-01  2.42877e-01 -3.85216e-02
       H -9.41132e-01  3.90941e-01 -8.06524e-01
       H -3.90488e-01 -8.41811e-01  6.83373e-01
       L -1.71715e+00  1.41548e+00  3.14948e-01
       L  1.77243e+00  1.59810e+00 -1.05675e+00
6
# CELL(abcABC):  459.05226   459.05226   459.05226    90.00000    90.00000    90.00000  Step:          60  Bead:       0 x_centroid{angstrom}  cell{atomic_unit}
       C -3.20719e-01 -6.95006e-02 -7.91478e-02
       O  8.78784e-01  2.44490e-01 -4.17987e-02
       H -8.99149e-01  4.52449e-01 -8.80289e-01
       H -3.93082e-01 -8.38433e-01  6.68279e-01
       L -1.32442e+00  1.80870e+00  2.11824e-01
       L  1.10101e+00  1.51105e+00 -1.16165e+00
6
# CELL(abcABC):  459.05226   459.05226   459.05226    90.00000    90.00000    90.00000  Step:          61  Bead:       0 x_centroid{angstrom}  cell{atomic_unit}
       C -3.11698e-01 -7.63762e-02 -6.74894e-02
       O  8.70024e-01  2.45829e-01 -4.51231e-02
       H -8.58254e-01  5.10676e-01 -9.49992e-01
       H -4.02242e-01 -8.36126e-01  6.51947e-01
       L -9.49404e-01  2.18470e+00  8.58684e-02
       L  4.11883e-01  1.38033e+00 -1.25621e+00
6
# CELL(abcABC):  459.05226   459.05226   459.05226    90.00000    90.00000    90.00000  Step:          62  Bead:       0 x_centroid{angstrom}  cell{atomic_unit}
       C -3.01590e-01 -8.25288e-02 -5.65006e-02
       O  8.60894e-01  2.47165e-01 -4.83986e-02
       H -8.17981e-01  5.62925e-01 -1.01270e+00
       H -4.17849e-01 -8.36429e-01  6.35847e-01
       L -5.84078e-01  2.60107e+00 -9.04944e-02
       L -2.87192e-01  1.25587e+00 -1.33266e+00
6
# CELL(abcABC):  459.05226   459.05226   459.05226    90.00000    90.00000    90.00000  Step:          63  Bead:       0 x_centroid{angstrom}  cell{atomic_unit}
       C -2.90509e-01 -8.76015e-02 -4.67303e-02
       O  8.51502e-01  2.48348e-01 -5.15231e-02
       H -7.78415e-01  6.07421e-01 -1.06710e+00
       H -4.40229e-01 -8.39349e-01  6.23553e-01
       L -1.90982e-01  2.95532e+00 -2.69219e-01
       L -9.83268e-01  1.07544e+00 -1.40001e+00
6
# CELL(abcABC):  459.05226   459.05226   459.05226    90.00000    90.00000    90.00000  Step:          64  Bead:       0 x_centroid{angstrom}  cell{atomic_unit}
       C -2.78863e-01 -9.18334e-02 -3.83713e-02
       O  8.42295e-01  2.49704e-01 -5.44451e-02
       H -7.40554e-01  6.44160e-01 -1.11214e+00
       H -4.70550e-01 -8.47211e-01  6.15503e-01
       L  2.07548e-01  3.22309e+00 -5.20909e-01
       L -1.67247e+00  8.67585e-01 -1.40558e+00
6
# CELL(abcABC):  459.05226   459.05226   459.05226    90.00000    90.00000    90.00000  Step:          65  Bead:       0 x_centroid{angstrom}  cell{atomic_unit}
       C -2.66998e-01 -9.48452e-02 -3.17126e-02
       O  8.33578e-01  2.51054e-01 -5.69215e-02
       H -7.06220e-01  6.72282e-01 -1.14821e+00
       H -5.07787e-01 -8.60868e-01  6.11689e-01
       L  6.18686e-01  3.44591e+00 -7.95091e-01
       L -2.31477e+00  6.20231e-01 -1.40891e+00
6
# CELL(abcABC):  459.05226   459.05226   459.05226    90.00000    90.00000    90.00000  Step:          66  Bead:       0 x_centroid{angstrom}  cell{atomic_unit}
       C -2.55135e-01 -9.68661e-02 -2.61851e-02