6
# CELL(abcABC):  459.05226   459.05226   459.05226    90.00000    90.00000    90.00000  Step:           0  Bead:       0 x_centroid{angstrom}  cell{atomic_unit}
       C -3.39887e-01 -1.13437e-01  8.06659e-02
       O  8.43483e-01  2.62672e-01 -1.81512e-01
       H -7.35799e-02  8.16467e-01 -6.61432e-01
       H -4.30016e-01 -9.65701e-01  7.62278e-01
       L  0.00000e+00  0.00000e+00  0.00000e+00
       L  0.00000e+00  0.00000e+00  0.00000e+00
6
# CELL(abcABC):  459.05226   459.05226   459.05226    90.00000    90.00000    90.00000  Step:           1  Bead:       0 x_centroid{angstrom}  cell{atomic_unit}
       C -3.40065e-01 -1.12338e-01  8.24934e-02
       O  8.43454e-01  2.62115e-01 -1.81668e-01
       H -7.60290e-02  8.26152e-01 -6.62803e-01
       H -4.25099e-01 -9.79860e-01  7.44083e-01
       L  2.36183e-01  4.40242e-01  3.48745e-01
       L -1.76205e-02 -5.86048e-02  1.35095e-01
6
# CELL(abcABC):  459.05226   459.05226   459.05226    90.00000    90.00000    90.00000  Step:           2  Bead:       0 x_centroid{angstrom}  cell{atomic_unit}
       C -3.40121e-01 -1.11452e-01  8.42093e-02
       O  8.43521e-01  2.61786e-01 -1.81888e-01
       H -8.11098e-02  8.34827e-01 -6.62480e-01
       H -4.20530e-01 -9.94090e-01  7.26521e-01
       L  4.31488e-01  8.83239e-01  6.85450e-01
       L -1.74768e-02 -7.75445e-02  2.99410e-01
6
# CELL(abcABC):  459.05226   459.05226   459.05226    90.00000    90.00000    90.00000  Step:           3  Bead:       0 x_centroid{angstrom}  cell{atomic_unit}
       C -3.40191e-01 -1.10377e-01  8.57780e-02
       O  8.43699e-01  2.61362e-01 -1.82067e-01
       H -8.65451e-02  8.42963e-01 -6.61619e-01
       H -4.17192e-01 -1.00854e+00  7.09549e-01
       L  6.10697e-01  1.30616e+00  1.01424e+00
       L  2.23006e-02 -6.49163e-02  4.52671e-01
6
# CELL(abcABC):  459.05226   459.05226   459.05226    90.00000    90.00000    90.00000  Step:           4  Bead:       0 x_centroid{angstrom}  cell{atomic_unit}
       C -3.40454e-01 -1.09288e-01  8.70996e-02
       O  8.43964e-01  2.60846e-01 -1.82156e-01
       H -9.16152e-02  8.51489e-01 -6.59405e-01
       H -4.13337e-01 -1.02206e+00  6.92775e-01
       L  7.99904e-01  1.69475e+00  1.25825e+00
       L  8.18897e-02 -7.46286e-02  6.18667e-01
6
# CELL(abcABC):  459.05226   459.05226   459.05226    90.00000    90.00000    90.00000  Step:           5  Bead:       0 x_centroid{angstrom}  cell{atomic_unit}
       C -3.40360e-01 -1.08359e-01  8.84430e-02
       O  8.43964e-01  2.60467e-01 -1.82334e-01
       H -9.69153e-02  8.59309e-01 -6.55521e-01
       H -4.09300e-01 -1.03516e+00  6.75562e-01
       L  9.71639e-01  2.10555e+00  1.43125e+00
       L  1.80426e-01 -9.14636e-02  7.29209e-01
6
# CELL(abcABC):  459.05226   459.05226   459.05226    90.00000    90.00000    90.00000  Step:           6  Bead:       0 x_centroid{angstrom}  cell{atomic_unit}
       C -3.40193e-01 -1.07153e-01  8.98675e-02
       O  8.44011e-01  2.59991e-01 -1.82706e-01
       H -1.02941e-01  8.65774e-01 -6.49083e-01
       H -4.06182e-01 -1.04859e+00  6.57896e-01
       L  1.14386e+00  2.44258e+00  1.61545e+00
       L  3.05375e-01 -1.61420e-01  8.36235e-01
6
# CELL(abcABC):  459.05226   459.05226   459.05226    90.00000    90.00000    90.00000  Step:           7  Bead:       0 x_centroid{angstrom}  cell{atomic_unit}
       C -3.39939e-01 -1.05784e-01  9.10080e-02
       O  8.44070e-01  2.59584e-01 -1.82835e-01
       H -1.09615e-01  8.68589e-01 -6.41140e-01
       H -4.03614e-01 -1.06141e+00  6.38259e-01
       L  1.29033e+00  2.76314e+00  1.74520e+00
       L  4.29771e-01 -1.93506e-01  9.91194e-01
6
# CELL(abcABC):  459.05226   459.05226   459.05226    90.00000    90.00000    90.00000  Step:           8  Bead:       0 x_centroid{angstrom}  cell{atomic_unit}
       C -3.39632e-01 -1.04450e-01  9.18466e-02
       O  8.44221e-01  2.59384e-01 -1.82860e-01
       H -1.17623e-01  8.69271e-01 -6.30896e-01
       H -4.01841e-01 -1.07495e+00  6.18286e-01
       L  1.48251e+00  3.08685e+00  1.84965e+00
       L  5.67877e-01 -2.73741e-01  1.12855e+00
6
# CELL(abcABC):  459.05226   459.05226   459.05226    90.00000    90.00000    90.00000  Step:           9  Bead:       0 x_centroid{angstrom}  cell{atomic_unit}
       C -3.39242e-01 -1.02828e-01  9.23328e-02
       O  8.44455e-01  2.58985e-01 -1.82797e-01
       H -1.26674e-01  8.69255e-01 -6.18581e-01
       H -4.01348e-01 -1.08803e+00  5.99058e-01
       L  1.72547e+00  3.37088e+00  2.00451e+00
       L  6.94522e-01 -3.60617e-01  1.19789e+00
6
# CELL(abcABC):  459.05226   459.05226   459.05226    90.00000    90.00000    90.00000  Step:          10  Bead:       0 x_centroid{angstrom}  cell{atomic_unit}
       C -3.38359e-01 -1.01361e-01  9.24692e-02
       O  8.44583e-01  2.58692e-01 -1.82483e-01
       H -1.38567e-01  8.68896e-01 -6.04948e-01
       H -4.02179e-01 -1.10060e+00  5.78679e-01
       L  1.91204e+00  3.63998e+00  2.20242e+00
       L  8.28191e-01 -4.56422e-01  1.24865e+00
6
# CELL(abcABC):  459.05226   459.05226   459.05226    90.00000    90.00000    90.00000  Step:          11  Bead:       0 x_centroid{angstrom}  cell{atomic_unit}
       C -3.37125e-01 -9.95666e-02  9.22131e-02
       O  8.44620e-01  2.58180e-01 -1.81978e-01
       H -1.52269e-01  8.67006e-01 -5.90235e-01
       H -4.03925e-01 -1.11200e+00  5.58876e-01
       L  2.06388e+00  3.83416e+00  2.39510e+00
       L  9.72767e-01 -5.61006e-01  1.28233e+00
6
# CELL(abcABC):  459.05226   459.05226   459.05226    90.00000    90.00000    90.00000  Step:          12  Bead:       0 x_centroid{angstrom}  cell{atomic_unit}
       C -3.35515e-01 -9.78016e-02  9.16924e-02
       O  8.44691e-01  2.57588e-01 -1.81301e-01
       H -1.69198e-01  8.63915e-01 -5.74608e-01
       H -4.07451e-01 -1.12058e+00  5.38546e-01
       L  2.17050e+00  3.97981e+00  2.64816e+00
       L  1.10080e+00 -6.49066e-01  1.31217e+00
6
# CELL(abcABC):  459.05226   459.05226   459.05226    90.00000    90.00000    90.00000  Step:          13  Bead:       0 x_centroid{angstrom}  cell{atomic_unit}
       C -3.33574e-01 -9.58489e-02  9.10678e-02
       O  8.44922e-01  2.56730e-01 -1.80576e-01
       H -1.91342e-01  8.61309e-01 -5.58815e-01
       H -4.12199e-01 -1.12763e+00  5.18589e-01
       L  2.23230e+00  4.03600e+00  2.81693e+00
       L  1.22191e+00 -6.95891e-01  1.32672e+00
6
# CELL(abcABC):  459.05226   459.05226   459.05226    90.00000    90.00000    90.00000  Step:          14  Bead:       0 x_centroid{angstrom}  cell{atomic_unit}
       C -3.31394e-01 -9.42825e-02  9.02116e-02
       O  8.45524e-01  2.55853e-01 -1.79584e-01
       H -2.19714e-01  8.60326e-01 -5.43643e-01
       H -4.19442e-01 -1.13139e+00  4.97758e-01
       L  2.29788e+00  4.06594e+00  2.98047e+00
       L  1.32226e+00 -7.23575e-01  1.38871e+00
6
# CELL(abcABC):  459.05226   459.05226   459.05226    90.00000    90.00000    90.00000  Step:          15  Bead:       0 x_centroid{angstrom}  cell{atomic_unit}
       C -3.28874e-01 -9.26089e-02  8.88766e-02
       O  8.46577e-01  2.54724e-01 -1.78268e-01
       H -2.56965e-01  8.59337e-01 -5.26776e-01
       H -4.29042e-01 -1.13239e+00  4.75801e-01
       L  2.34208e+00  4.04202e+00  3.11213e+00
       L  1.45390e+00 -7.64802e-01  1.45414e+00
6
# CELL(abcABC):  459.05226   459.05226   459.05226    90.00000    90.00000    90.00000  Step:          16  Bead:       0 x_centroid{angstrom}  cell{atomic_unit}
       C -3.25779e-01 -9.04457e-02  8.67339e-02
       O  8.47943e-01  2.52957e-01 -1.76423e-01
       H -3.04157e-01  8.60150e-01 -5.08931e-01
       H -4.40512e-01 -1.13088e+00  4.54100e-01
       L  2.38373e+00  3.98380e+00  3.20726e+00
       L  1.58601e+00 -7.95233e-01  1.53897e+00
6
# CELL(abcABC):  459.05226   459.05226   459.05226    90.00000    90.00000    90.00000  Step:          17  Bead:       0 x_centroid{angstrom}  cell{atomic_unit}
       C -3.22017e-01 -8.82407e-02  8.46444e-02
       O  8.49678e-01  2.50986e-01 -1.74601e-01
       H -3.63548e-01  8.62696e-01 -4.91006e-01
       H -4.53611e-01 -1.12834e+00  4.32066e-01
       L  2.46276e+00  3.88744e+00  3.27955e+00
       L  1.73706e+00 -8.50257e-01  1.61498e+00
6
# CELL(abcABC):  459.05226   459.05226   459.05226    90.00000    90.00000    90.00000  Step:          18  Bead:       0 x_centroid{angstrom}  cell{atomic_unit}
       C -3.16990e-01 -8.57657e-02  8.20430e-02
       O  8.51521e-01  2.48591e-01 -1.72505e-01
       H -4.35822e-01  8.66084e-01 -4.70457e-01
       H -4.70562e-01 -1.12309e+00  4.09246e-01
       L  2.50261e+00  3.74217e+00  3.30312e+00
       L  1.82985e+00 -9.06799e-01  1.61239e+00
6
# CELL(abcABC):  459.05226   459.05226   459.05226    90.00000    90.00000    90.00000  Step:          19  Bead:       0 x_centroid{angstrom}  cell{atomic_unit}
       C -3.10979e-01 -8.28415e-02  7.89955e-02
       O  8.53635e-01  2.45858e-01 -1.70240e-01
       H -5.21714e-01  8.67312e-01 -4.47912e-01
       H -4.89900e-01 -1.11565e+00  3.87070e-01
       L  2.55934e+00  3.57473e+00  3.29838e+00
       L  1.86388e+00 -9.76684e-01  1.60313e+00
6
# CELL(abcABC):  459.05226   459.05226   459.05226    90.00000    90.00000    90.00000  Step:          20  Bead:       0 x_centroid{angstrom}  cell{atomic_unit}
       C -3.03709e-01 -7.91286e-02  7.50718e-02
       O  8.55774e-01  2.42501e-01 -1.67485e-01
       H -6.20240e-01  8.65782e-01 -4.21822e-01
       H -5.12004e-01 -1.10494e+00  3.64015e-01
       L  2.59743e+00  3.36603e+00  3.27334e+00
       L  1.90488e+00 -1.03017e+00  1.60343e+00
6
# CELL(abcABC):  459.05226   459.05226   459.05226    90.00000    90.00000    90.00000  Step:          21  Bead:       0 x_centroid{angstrom}  cell{atomic_unit}
       C -2.95670e-01 -7.46629e-02  7.07960e-02
       O  8.58267e-01  2.38718e-01 -1.64772e-01
       H -7.29241e-01  8.61106e-01 -3.91939e-01
       H -5.38351e-01 -1.09329e+00  3.42100e-01
       L  2.55365e+00  3.20787e+00  3.19429e+00
       L  1.92513e+00 -1.11145e+00  1.53987e+00
6
# CELL(abcABC):  459.05226   459.05226   459.05226    90.00000    90.00000    90.00000  Step:          22  Bead:       0 x_centroid{angstrom}  cell{atomic_unit}
       C -2.86554e-01 -6.94716e-02  6.59367e-02
       O  8.60592e-01  2.34712e-01 -1.61910e-01
       H -8.45377e-01  8.50895e-01 -3.57916e-01
       H -5.67702e-01 -1.08121e+00  3.20643e-01
       L  2.46730e+00  3.01332e+00  3.08751e+00
       L  1.92906e+00 -1.18684e+00  1.45413e+00
6
# CELL(abcABC):  459.05226   459.05226   459.05226    90.00000    90.00000    90.00000  Step:          23  Bead:       0 x_centroid{angstrom}  cell{atomic_unit}
       C -2.77274e-01 -6.38346e-02  6.03545e-02
       O  8.63032e-01  2.30727e-01 -1.58807e-01
       H -9.64298e-01  8.34662e-01 -3.19937e-01
       H -5.98056e-01 -1.06873e+00  3.00055e-01
       L  2.38091e+00  2.78881e+00  2.97759e+00
       L  1.93646e+00 -1.24396e+00  1.33613e+00
6
# CELL(abcABC):  459.05226   459.05226   459.05226    90.00000    90.00000    90.00000  Step:          24  Bead:       0 x_centroid{angstrom}  cell{atomic_unit}
       C -2.68024e-01 -5.74483e-02  5.41823e-02
       O  8.65528e-01  2.26649e-01 -1.55544e-01
       H -1.08079e+00  8.12238e-01 -2.78303e-01
       H -6.31327e-01 -1.05752e+00  2.80306e-01
       L  2.24550e+00  2.57872e+00  2.85739e+00
       L  1.90925e+00 -1.33104e+00  1.21528e+00
6
# CELL(abcABC):  459.05226   459.05226   459.05226    90.00000    90.00000    90.00000  Step:          25  Bead:       0 x_centroid{angstrom}  cell{atomic_unit}
       C -2.58922e-01 -5.04766e-02  4.76379e-02
       O  8.67787e-01  2.22512e-01 -1.52270e-01
       H -1.19226e+00  7.83063e-01 -2.33237e-01
       H -6.64068e-01 -1.04561e+00  2.61443e-01
       L  2.08514e+00  2.40268e+00  2.70374e+00
       L  1.88956e+00 -1.41598e+00  1.03026e+00
6
# CELL(abcABC):  459.05226   459.05226   459.05226    90.00000    90.00000    90.00000  Step:          26  Bead:       0 x_centroid{angstrom}  cell{atomic_unit}
       C -2.50374e-01 -4.31255e-02  4.04893e-02
       O  8.69788e-01  2.18464e-01 -1.48857e-01
       H -1.29543e+00  7.47853e-01 -1.83773e-01
       H -6.94429e-01 -1.03359e+00  2.43219e-01
       L  1.93797e+00  2.22784e+00  2.47940e+00
       L  1.85508e+00 -1.51274e+00  8.24920e-01
6
# CELL(abcABC):  459.05226   459.05226   459.05226    90.00000    90.00000    90.00000  Step:          27  Bead:       0 x_centroid{angstrom}  cell{atomic_unit}
       C -2.42890e-01 -3.55919e-02  3.31019e-02
       O  8.71866e-01  2.14519e-01 -1.45490e-01
       H -1.38971e+00  7.08711e-01 -1.31301e-01
       H -7.22167e-01 -1.02142e+00  2.25604e-01
       L  1.78079e+00  1.99683e+00  2.15380e+00
       L  1.75986e+00 -1.63271e+00  6.46731e-01
6
# CELL(abcABC):  459.05226   459.05226   459.05226    90.00000    90.00000    90.00000  Step:          28  Bead:       0 x_centroid{angstrom}  cell{atomic_unit}
       C -2.36734e-01 -2.81317e-02  2.54601e-02
       O  8.74086e-01  2.10803e-01 -1.41988e-01
       H -1.47336e+00  6.66064e-01 -7.88650e-02
       H -7.46940e-01 -1.00851e+00  2.08927e-01
       L  1.59865e+00  1.77931e+00  1.77259e+00
       L  1.63031e+00 -1.70476e+00  5.05743e-01
6
# CELL(abcABC):  459.05226   459.05226   459.05226    90.00000    90.00000    90.00000  Step:          29  Bead:       0 x_centroid{angstrom}  cell{atomic_unit}
       C -2.32050e-01 -2.09910e-02  1.77083e-02
       O  8.76620e-01  2.07401e-01 -1.38528e-01
       H -1.54765e+00  6.23106e-01 -2.63977e-02
       H -7.68501e-01 -9.96469e-01  1.94222e-01
       L  1.37575e+00  1.51360e+00  1.39849e+00
       L  1.50352e+00 -1.78031e+00  3.04564e-01
6
# CELL(abcABC):  459.05226   459.05226   459.05226    90.00000    90.00000    90.00000  Step:          30  Bead:       0 x_centroid{angstrom}  cell{atomic_unit}
       C -2.29052e-01 -1.40889e-02  1.00222e-02
       O  8.79311e-01  2.04086e-01 -1.35138e-01
       H -1.61071e+00  5.81644e-01  2.63799e-02
       H -7.83664e-01 -9.84451e-01  1.79537e-01
       L  1.13215e+00  1.28227e+00  1.03421e+00
       L  1.37516e+00 -1.85532e+00  6.79392e-02
6
# CELL(abcABC):  459.05226   459.05226   459.05226    90.00000    90.00000    90.00000  Step:          31  Bead:       0 x_centroid{angstrom}  cell{atomic_unit}
       C -2.28143e-01 -7.79956e-03  2.52059e-03
       O  8.82597e-01  2.01076e-01 -1.31725e-01
       H -1.66466e+00  5.42848e-01  7.78052e-02
       H -7.92496e-01 -9.72636e-01  1.63653e-01
       L  8.43890e-01  1.02768e+00  6.65657e-01
       L  1.23409e+00 -1.95400e+00 -1.40800e-01
6
# CELL(abcABC):  459.05226   459.05226   459.05226    90.00000    90.00000    90.00000  Step:          32  Bead:       0 x_centroid{angstrom}  cell{atomic_unit}
       C -2.29347e-01 -2.07488e-03 -4.89902e-03
       O  8.86374e-01  1.98253e-01 -1.28351e-01
       H -1.70840e+00  5.07181e-01  1.28654e-01
       H -7.94133e-01 -9.60164e-01  1.47960e-01
       L  5.83441e-01  7.69672e-01  3.14971e-01
       L  1.08679e+00 -2.07322e+00 -3.63208e-01
6
# CELL(abcABC):  459.05226   459.05226   459.05226    90.00000    90.00000    90.00000  Step:          33  Bead:       0 x_centroid{angstrom}  cell{atomic_unit}
       C -2.32165e-01  2.65832e-03 -1.19716e-02
       O  8.90345e-01  1.95943e-01 -1.25036e-01
       H -1.74164e+00  4.75672e-01  1.77042e-01
       H -7.90159e-01 -9.48248e-01  1.31579e-01
       L  3.51746e-01  5.23720e-01 -2.75516e-02
       L  9.73236e-01 -2.10352e+00 -6.54486e-01
6
# CELL(abcABC):  459.05226   459.05226   459.05226    90.00000    90.00000    90.00000  Step:          34  Bead:       0 x_centroid{angstrom}  cell{atomic_unit}
       C -2.36612e-01  6.93188e-03 -1.85897e-02
       O  8.94603e-01  1.93835e-01 -1.21914e-01
       H -1.76425e+00  4.47638e-01  2.23753e-01
       H -7.81920e-01 -9.37548e-01  1.14534e-01
       L  1.25801e-01  3.05197e-01 -3.99540e-01
       L  7.80621e-01 -2.12029e+00 -9.29284e-01
6
# CELL(abcABC):  459.05226   459.05226   459.05226    90.00000    90.00000    90.00000  Step:          35  Bead:       0 x_centroid{angstrom}  cell{atomic_unit}
       C -2.42283e-01  1.08419e-02 -2.46893e-02
       O  8.98810e-01  1.91876e-01 -1.19074e-01
       H -1.77713e+00  4.24214e-01  2.68905e-01
       H -7.68017e-01 -9.29534e-01  9.73485e-02
       L -6.07482e-02  1.04467e-01 -7.71375e-01
       L  5.54672e-01 -2.08009e+00 -1.23289e+00
6
# CELL(abcABC):  459.05226   459.05226   459.05226    90.00000    90.00000    90.00000  Step:          36  Bead:       0 x_centroid{angstrom}  cell{atomic_unit}
       C -2.49077e-01  1.38925e-02 -3.03988e-02
       O  9.03102e-01  1.90315e-01 -1.16259e-01
       H -1.78265e+00  4.05544e-01  3.10982e-01
       H -7.49447e-01 -9.22366e-01  7.89805e-02
       L -2.10764e-01 -1.45669e-01 -1.05854e+00
       L  2.99353e-01 -1.96014e+00 -1.59551e+00
6
# CELL(abcABC):  459.05226   459.05226   459.05226    90.00000    90.00000    90.00000  Step:          37  Bead:       0 x_centroid{angstrom}  cell{atomic_unit}
       C -2.56764e-01  1.62262e-02 -3.54789e-02
       O  9.07184e-01  1.89113e-01 -1.13668e-01
       H -1.77766e+00  3.93303e-01  3.50703e-01
       H -7.27420e-01 -9.18767e-01  5.90054e-02
       L -3.21120e-01 -4.25035e-01 -1.33970e+00
       L  3.85912e-02 -1.84299e+00 -1.94212e+00
6
# CELL(abcABC):  459.05226   459.05226   459.05226    90.00000    90.00000    90.00000  Step:          38  Bead:       0 x_centroid{angstrom}  cell{atomic_unit}
       C -2.65123e-01  1.82283e-02 -4.03395e-02
       O  9.10970e-01  1.88140e-01 -1.10817e-01
       H -1.76189e+00  3.86561e-01  3.86764e-01
       H -7.03488e-01 -9.20365e-01  3.59204e-02
       L -4.33343e-01 -6.56350e-01 -1.59271e+00
       L -1.92915e-01 -1.71911e+00 -2.26907e+00
6
# CELL(abcABC):  459.05226   459.05226   459.05226    90.00000    90.00000    90.00000  Step:          39  Bead:       0 x_centroid{angstrom}  cell{atomic_unit}
       C -2.73988e-01  2.00921e-02 -4.50439e-02
       O  9.14411e-01  1.87287e-01 -1.07758e-01
       H -1.73689e+00  3.85012e-01  4.20640e-01
       H -6.77322e-01 -9.27424e-01  9.84684e-03
       L -4.96669e-01 -8.95835e-01 -1.80659e+00
       L -4.51207e-01 -1.61789e+00 -2.62213e+00
6
# CELL(abcABC):  459.05226   459.05226   459.05226    90.00000    90.00000    90.00000  Step:          40  Bead:       0 x_centroid{angstrom}  cell{atomic_unit}
       C -2.82587e-01  2.17814e-02 -4.92785e-02
       O  9.17010e-01  1.86652e-01 -1.04565e-01
       H -1.70220e+00  3.87675e-01  4.51073e-01
       H -6.50638e-01 -9.40102e-01 -2.05168e-02
       L -5.32562e-01 -1.12211e+00 -1.97475e+00
       L -6.97599e-01 -1.44712e+00 -2.96618e+00
6
# CELL(abcABC):  459.05226   459.05226   459.05226    90.00000    90.00000    90.00000  Step:          41  Bead:       0 x_centroid{angstrom}  cell{atomic_unit}
       C -2.91281e-01  2.35476e-02 -5.30556e-02
       O  9.19169e-01  1.86104e-01 -1.01275e-01
       H -1.65771e+00  3.93970e-01  4.77401e-01
       H -6.25646e-01 -9.58740e-01 -5.38169e-02
       L -5.39276e-01 -1.34192e+00 -2.08799e+00
       L -9.71512e-01 -1.23264e+00 -3.29946e+00
6
# CELL(abcABC):  459.05226   459.05226   459.05226    90.00000    90.00000    90.00000  Step:          42  Bead:       0 x_centroid{angstrom}  cell{atomic_unit}
       C -3.00038e-01  2.51555e-02 -5.64058e-02
       O  9.20714e-01  1.85798e-01 -9.78410e-02
       H -1.60192e+00  4.03673e-01  4.99250e-01
       H -6.01457e-01 -9.82734e-01 -9.00648e-02
       L -5.50459e-01 -1.53245e+00 -2.13492e+00
       L -1.21964e+00 -1.07292e+00 -3.61495e+00
6
# CELL(abcABC):  459.05226   459.05226   459.05226    90.00000    90.00000    90.00000  Step:          43  Bead:       0 x_centroid{angstrom}  cell{atomic_unit}
       C -3.08629e-01  2.65419e-02 -5.93027e-02
       O  9.21460e-01  1.85665e-01 -9.42231e-02
       H -1.53563e+00  4.15992e-01  5.16180e-01
       H -5.77086e-01 -1.00943e+00 -1.29721e-01
       L -5.51508e-01 -1.76161e+00 -2.13984e+00
       L -1.49281e+00 -8.98307e-01 -3.94281e+00
6
# CELL(abcABC):  459.05226   459.05226   459.05226    90.00000    90.00000    90.00000  Step:          44  Bead:       0 x_centroid{angstrom}  cell{atomic_unit}
       C -3.16844e-01  2.75812e-02 -6.17549e-02
       O  9.21410e-01  1.85779e-01 -9.04148e-02
       H -1.46015e+00  4.30063e-01  5.28383e-01
       H -5.53758e-01 -1.03774e+00 -1.73011e-01
       L -5.46063e-01 -1.93246e+00 -2.11666e+00
       L -1.72105e+00 -6.51109e-01 -4.22769e+00
6
# CELL(abcABC):  459.05226   459.05226   459.05226    90.00000    90.00000    90.00000  Step:          45  Bead:       0 x_centroid{angstrom}  cell{atomic_unit}
       C -3.24734e-01  2.79324e-02 -6.35026e-02
       O  9.20515e-01  1.86230e-01 -8.66934e-02
       H -1.37509e+00  4.46711e-01  5.36191e-01
       H -5.30493e-01 -1.06579e+00 -2.18925e-01
       L -5.20227e-01 -2.05453e+00 -2.14339e+00
       L -1.91189e+00 -3.98233e-01 -4.45875e+00
6
# CELL(abcABC):  459.05226   459.05226   459.05226    90.00000    90.00000    90.00000  Step:          46  Bead:       0 x_centroid{angstrom}  cell{atomic_unit}
       C -3.32224e-01  2.76186e-02 -6.45122e-02
       O  9.18883e-01  1.86889e-01 -8.30519e-02
       H -1.28086e+00  4.63889e-01  5.38481e-01
       H -5.09490e-01 -1.08980e+00 -2.66867e-01
       L -5.01270e-01 -2.11736e+00 -2.16343e+00
       L -2.09240e+00 -1.59139e-01 -4.65701e+00
6
# CELL(abcABC):  459.05226   459.05226   459.05226    90.00000    90.00000    90.00000  Step:          47  Bead:       0 x_centroid{angstrom}  cell{atomic_unit}
       C -3.38762e-01  2.64488e-02 -6.50233e-02
       O  9.16141e-01  1.87921e-01 -7.94289e-02
       H -1.17872e+00  4.81582e-01  5.36602e-01
       H -4.90101e-01 -1.11002e+00 -3.16349e-01
       L -4.99190e-01 -2.20760e+00 -2.14340e+00
       L -2.26869e+00  1.14105e-01 -4.78501e+00
6
# CELL(abcABC):  459.05226   459.05226   459.05226    90.00000    90.00000    90.00000  Step:          48  Bead:       0 x_centroid{angstrom}  cell{atomic_unit}
       C -3.44426e-01  2.43863e-02 -6.52365e-02
       O  9.12747e-01  1.89102e-01 -7.58098e-02
       H -1.07373e+00  5.00051e-01  5.30824e-01
       H -4.73704e-01 -1.12279e+00 -3.65470e-01
       L -4.17191e-01 -2.27523e+00 -2.07847e+00
       L -2.39179e+00  4.05742e-01 -4.86549e+00
6
# CELL(abcABC):  459.05226   459.05226   459.05226    90.00000    90.00000    90.00000  Step:          49  Bead:       0 x_centroid{angstrom}  cell{atomic_unit}
       C -3.48544e-01  2.13966e-02 -6.55359e-02
       O  9.08474e-01  1.90266e-01 -7.21450e-02
       H -9.69816e-01  5.21684e-01  5.24143e-01
       H -4.60685e-01 -1.12739e+00 -4.13404e-01
       L -3.52943e-01 -2.32695e+00 -2.04660e+00
       L -2.49979e+00  6.81584e-01 -4.87898e+00
6
# CELL(abcABC):  459.05226   459.05226   459.05226    90.00000    90.00000    90.00000  Step:          50  Bead:       0 x_centroid{angstrom}  cell{atomic_unit}
       C -3.50840e-01  1.71702e-02 -6.61714e-02
       O  9.03570e-01  1.91374e-01 -6.86798e-02
       H -8.73614e-01  5.50077e-01  5.22551e-01
       H -4.51675e-01 -1.12311e+00 -4.59291e-01
       L -2.84560e-01 -2.33410e+00 -1.99376e+00
       L -2.60447e+00  8.76433e-01 -4.84241e+00
6
# CELL(abcABC):  459.05226   459.05226   459.05226    90.00000    90.00000    90.00000  Step:          51  Bead:       0 x_centroid{angstrom}  cell{atomic_unit}
       C -3.50877e-01  1.12753e-02 -6.76140e-02
       O  8.97968e-01  1.92553e-01 -6.52263e-02
       H -7.88906e-01  5.88834e-01  5.28763e-01
       H -4.47034e-01 -1.11048e+00 -5.03197e-01
       L -1.97464e-01 -2.31309e+00 -1.93759e+00
       L -2.64931e+00  1.11028e+00 -4.78087e+00
6
# CELL(abcABC):  459.05226   459.05226   459.05226    90.00000    90.00000    90.00000  Step:          52  Bead:       0 x_centroid{angstrom}  cell{atomic_unit}
       C -3.48291e-01  3.49463e-03 -7.02495e-02
       O  8.91628e-01  1.93986e-01 -6.17344e-02
       H -7.18818e-01  6.37447e-01  5.45888e-01
       H -4.47374e-01 -1.08928e+00 -5.44438e-01
       L -8.31597e-02 -2.30829e+00 -1.87096e+00
       L -2.65623e+00  1.37975e+00 -4.67709e+00
6
# CELL(abcABC):  459.05226   459.05226   459.05226    90.00000    90.00000    90.00000  Step:          53  Bead:       0 x_centroid{angstrom}  cell{atomic_unit}
       C -3.43268e-01 -5.61690e-03 -7.38604e-02
       O  8.84593e-01  1.95289e-01 -5.83820e-02
       H -6.62606e-01  6.96593e-01  5.72593e-01
       H -4.51810e-01 -1.06067e+00 -5.81425e-01
       L  2.53154e-02 -2.31554e+00 -1.84997e+00
       L -2.66890e+00  1.63915e+00 -4.51913e+00
6
# CELL(abcABC):  459.05226   459.05226   459.05226    90.00000    90.00000    90.00000  Step:          54  Bead:       0 x_centroid{angstrom}  cell{atomic_unit}
       C -3.36602e-01 -1.54337e-02 -7.78870e-02
       O  8.77242e-01  1.96443e-01 -5.51840e-02
       H -6.16750e-01  7.59535e-01  6.03424e-01
       H -4.60447e-01 -1.02506e+00 -6.15150e-01
       L  9.85957e-02 -2.36746e+00 -1.88686e+00
       L -2.69354e+00  1.90730e+00 -4.27773e+00
6
# CELL(abcABC):  459.05226   459.05226   459.05226    90.00000    90.00000    90.00000  Step:          55  Bead:       0 x_centroid{angstrom}  cell{atomic_unit}
       C -3.28586e-01 -2.52592e-02 -8.19651e-02
       O  8.69800e-01  1.97483e-01 -5.20858e-02
       H -5.79718e-01  8.20522e-01  6.33754e-01
       H -4.74900e-01 -9.85597e-01 -6.46193e-01
       L  1.59169e-01 -2.43046e+00 -1.92936e+00
       L -2.69517e+00  2.17230e+00 -3.99664e+00
6
# CELL(abcABC):  459.05226   459.05226   459.05226    90.00000    90.00000    90.00000  Step:          56  Bead:       0 x_centroid{angstrom}  cell{atomic_unit}
       C -3.19195e-01 -3.46853e-02 -8.58007e-02
       O  8.62285e-01  1.98282e-01 -4.90470e-02
       H -5.51033e-01  8.76794e-01  6.60095e-01
       H -4.96202e-01 -9.42323e-01 -6.75230e-01
       L  1.96531e-01 -2.47841e+00 -1.99590e+00
       L -2.73346e+00  2.39707e+00 -3.62739e+00
6
# CELL(abcABC):  459.05226   459.05226   459.05226    90.00000    90.00000    90.00000  Step:          57  Bead:       0 x_centroid{angstrom}  cell{atomic_unit}
       C -3.09145e-01 -4.31464e-02 -8.90560e-02
       O  8.55060e-01  1.98866e-01 -4.62724e-02
       H -5.29848e-01  9.23626e-01  6.81007e-01
       H -5.22464e-01 -8.97755e-01 -7.01594e-01
       L  2.06661e-01 -2.44399e+00 -2.03422e+00
       L -2.72291e+00  2.65094e+00 -3.22149e+00
6
# CELL(abcABC):  459.05226   459.05226   459.05226    90.00000    90.00000    90.00000  Step:          58  Bead:       0 x_centroid{angstrom}  cell{atomic_unit}
       C -2.98636e-01 -5.06683e-02 -9.17283e-02
       O  8.48363e-01  1.99320e-01 -4.36393e-02
       H -5.16731e-01  9.62612e-01  6.96762e-01
       H -5.54519e-01 -8.54491e-01 -7.27511e-01
       L  1.76743e-01 -2.34801e+00 -2.07825e+00
       L -2.66496e+00  2.87843e+00 -2.79317e+00
6
# CELL(abcABC):  459.05226   459.05226   459.05226    90.00000    90.00000    90.00000  Step:          59  Bead:       0 x_centroid{angstrom}  cell{atomic_unit}
       C -2.87906e-01 -5.70332e-02 -9.34994e-02
       O  8.42319e-01  1.99628e-01 -4.12624e-02
       H -5.11812e-01  9.93312e-01  7.05873e-01
       H -5.91379e-01 -8.14417e-01 -7.53483e-01
       L  1.26388e-01 -2.24637e+00 -2.12810e+00
       L -2.59785e+00  3.12427e+00 -2.31102e+00
6
# CELL(abcABC):  459.05226   459.05226   459.05226    90.00000    90.00000    90.00000  Step:          60  Bead:       0 x_centroid{angstrom}  cell{atomic_unit}
       C -2.77113e-01 -6.18585e-02 -9.44073e-02
       O  8.36960e-01  1.99516e-01 -3.91871e-02
       H -5.14391e-01  1.01490e+00  7.09078e-01
       H -6.32356e-01 -7.76906e-01 -7.79086e-01
       L  1.09249e-01 -2.14153e+00 -2.16021e+00
       L -2.55219e+00  3.33360e+00 -1.77253e+00
6
# CELL(abcABC):  459.05226   459.05226   459.05226    90.00000    90.00000    90.00000  Step:          61  Bead:       0 x_centroid{angstrom}  cell{atomic_unit}
       C -2.67112e-01 -6.54773e-02 -9.43237e-02
       O  8.32842e-01  1.99180e-01 -3.75123e-02
       H -5.23769e-01  1.02840e+00  7.07178e-01
       H -6.76773e-01 -7.42118e-01 -8.05072e-01
       L  4.76202e-02 -2.01019e+00 -2.12361e+00
       L -2.49462e+00  3.50900e+00 -1.24881e+00
6
# CELL(abcABC):  459.05226   459.05226   459.05226    90.00000    90.00000    90.00000  Step:          62  Bead:       0 x_centroid{angstrom}  cell{atomic_unit}
       C -2.57868e-01 -6.77849e-02 -9.34684e-02
       O  8.30085e-01  1.98710e-01 -3.61537e-02
       H -5.42236e-01  1.03087e+00  7.01200e-01
       H -7.24696e-01 -7.09789e-01 -8.31142e-01
       L  2.07048e-03 -1.88836e+00 -2.11591e+00
       L -2.45145e+00  3.67294e+00 -7.23043e-01
6
# CELL(abcABC):  459.05226   459.05226   459.05226    90.00000    90.00000    90.00000  Step:          63  Bead:       0 x_centroid{angstrom}  cell{atomic_unit}
       C -2.49713e-01 -6.89371e-02 -9.20726e-02
       O  8.28618e-01  1.97875e-01 -3.48967e-02
       H -5.69471e-01  1.02620e+00  6.89913e-01
       H -7.71357e-01 -6.78257e-01 -8.56740e-01
       L -6.25528e-02 -1.83535e+00 -2.09681e+00
       L -2.39060e+00  3.85366e+00 -1.91324e-01
6
# CELL(abcABC):  459.05226   459.05226   459.05226    90.00000    90.00000    90.00000  Step:          64  Bead:       0 x_centroid{angstrom}  cell{atomic_unit}
       C -2.43322e-01 -6.91652e-02 -9.02271e-02
       O  8.28918e-01  1.96965e-01 -3.37944e-02
       H -6.03846e-01  1.01292e+00  6.73698e-01
       H -8.17873e-01 -6.47937e-01 -8.80364e-01
       L -1.53666e-01 -1.79246e+00 -2.01584e+00
       L -2.34490e+00  4.04176e+00  3.71069e-01
6
# CELL(abcABC):  459.05226   459.05226   459.05226    90.00000    90.00000    90.00000  Step:          65  Bead:       0 x_centroid{angstrom}  cell{atomic_unit}
       C -2.39050e-01 -6.80959e-02 -8.83321e-02
       O  8.31154e-01  1.95655e-01 -3.27295e-02
       H -6.45110e-01  9.90439e-01  6.53932e-01
       H -8.62951e-01 -6.17482e-01 -9.00451e-01
       L -3.14411e-01 -1.76135e+00 -1.89091e+00
       L -2.27347e+00  4.15231e+00  9.24937e-01
6
# CELL(abcABC):  459.05226   459.05226   459.05226    90.00000    90.00000    90.00000  Step:          66  Bead:       0 x_centroid{angstrom}  cell{atomic_unit}
       C -2.37072e-01 -6.61349e-02 -8.59022e-02