6
# CELL(abcABC):  459.05226   459.05226   459.05226    90.00000    90.00000    90.00000  Step:           0  Bead:       0 x_centroid{angstrom}  cell{atomic_unit}
       C -3.39887e-01 -1.13437e-01  8.06659e-02
       O  8.43483e-01  2.62672e-01 -1.81512e-01
       H -7.35799e-02  8.16467e-01 -6.61432e-01
       H -4.30016e-01 -9.65701e-01  7.62278e-01
       L  0.00000e+00  0.00000e+00  0.00000e+00
       L  0.00000e+00  0.00000e+00  0.00000e+00
6
# CELL(abcABC):  459.05226   459.05226   459.05226    90.00000    90.00000    90.00000  Step:           1  Bead:       0 x_centroid{angstrom}  cell{atomic_unit}
       C -3.40472e-01 -1.10668e-01  8.18978e-02
       O  8.44581e-01  2.61033e-01 -1.81944e-01
       H -7.32668e-02  8.12295e-01 -6.74340e-01
       H -4.40434e-01 -9.68473e-01  7.67306e-01
       L -5.71582e-01 -2.14573e-01  6.28382e-01
       L -5.44782e-02  1.28712e-01 -5.27300e-01
6
# CELL(abcABC):  459.05226   459.05226   459.05226    90.00000    90.00000    90.00000  Step:           2  Bead:       0 x_centroid{angstrom}  cell{atomic_unit}
       C -3.41162e-01 -1.08112e-01  8.34068e-02
       O  8.45715e-01  2.59610e-01 -1.82677e-01
       H -7.37735e-02  8.07584e-01 -6.85952e-01
       H -4.49373e-01 -9.71607e-01  7.72506e-01
       L -1.15173e+00 -4.36692e-01  1.29274e+00
       L -9.62273e-02  2.93318e-01 -1.06508e+00
6
# CELL(abcABC):  459.05226   459.05226   459.05226    90.00000    90.00000    90.00000  Step:           3  Bead:       0 x_centroid{angstrom}  cell{atomic_unit}
       C -3.41811e-01 -1.05750e-01  8.49851e-02
       O  8.46847e-01  2.58263e-01 -1.83389e-01
       H -7.44213e-02  8.02660e-01 -6.97530e-01
       H -4.58633e-01 -9.73442e-01  7.76469e-01
       L -1.69649e+00 -6.32331e-01  2.00146e+00
       L -1.56507e-01  5.10284e-01 -1.59272e+00
6
# CELL(abcABC):  459.05226   459.05226   459.05226    90.00000    90.00000    90.00000  Step:           4  Bead:       0 x_centroid{angstrom}  cell{atomic_unit}
       C -3.42254e-01 -1.03444e-01  8.65143e-02
       O  8.47668e-01  2.56754e-01 -1.84074e-01
       H -7.49694e-02  7.98000e-01 -7.07929e-01
       H -4.65527e-01 -9.72281e-01  7.79424e-01
       L -2.16265e+00 -8.61600e-01  2.63082e+00
       L -2.49529e-01  6.77785e-01 -2.03817e+00
6
# CELL(abcABC):  459.05226   459.05226   459.05226    90.00000    90.00000    90.00000  Step:           5  Bead:       0 x_centroid{angstrom}  cell{atomic_unit}
       C -3.42561e-01 -1.01193e-01  8.78665e-02
       O  8.48420e-01  2.55183e-01 -1.84630e-01
       H -7.53747e-02  7.92983e-01 -7.17429e-01
       H -4.73140e-01 -9.69143e-01  7.81508e-01
       L -2.56204e+00 -1.07195e+00  3.25390e+00
       L -3.46963e-01  8.84940e-01 -2.41446e+00
6
# CELL(abcABC):  459.05226   459.05226   459.05226    90.00000    90.00000    90.00000  Step:           6  Bead:       0 x_centroid{angstrom}  cell{atomic_unit}
       C -3.42668e-01 -9.89697e-02  8.92230e-02
       O  8.49050e-01  2.53480e-01 -1.85173e-01
       H -7.67329e-02  7.87727e-01 -7.26011e-01
       H -4.80267e-01 -9.63305e-01  7.82393e-01
       L -2.93192e+00 -1.32878e+00  3.88571e+00
       L -4.15634e-01  1.04245e+00 -2.77615e+00
6
# CELL(abcABC):  459.05226   459.05226   459.05226    90.00000    90.00000    90.00000  Step:           7  Bead:       0 x_centroid{angstrom}  cell{atomic_unit}
       C -3.42707e-01 -9.67445e-02  9.03834e-02
       O  8.49638e-01  2.51744e-01 -1.85561e-01
       H -7.88403e-02  7.81358e-01 -7.33171e-01
       H -4.86765e-01 -9.55783e-01  7.81755e-01
       L -3.35296e+00 -1.61279e+00  4.43189e+00
       L -4.94128e-01  1.13878e+00 -3.09304e+00
6
# CELL(abcABC):  459.05226   459.05226   459.05226    90.00000    90.00000    90.00000  Step:           8  Bead:       0 x_centroid{angstrom}  cell{atomic_unit}
       C -3.42616e-01 -9.43046e-02  9.18178e-02
       O  8.50211e-01  2.49900e-01 -1.86087e-01
       H -8.19923e-02  7.74093e-01 -7.40145e-01
       H -4.93547e-01 -9.48252e-01  7.79851e-01
       L -3.73026e+00 -1.82911e+00  4.95063e+00
       L -5.51277e-01  1.22869e+00 -3.36519e+00
6
# CELL(abcABC):  459.05226   459.05226   459.05226    90.00000    90.00000    90.00000  Step:           9  Bead:       0 x_centroid{angstrom}  cell{atomic_unit}
       C -3.42561e-01 -9.16156e-02  9.29051e-02
       O  8.50894e-01  2.47853e-01 -1.86257e-01
       H -8.68691e-02  7.66393e-01 -7.47660e-01
       H -4.99913e-01 -9.40035e-01  7.76979e-01
       L -4.14600e+00 -2.02470e+00  5.42571e+00
       L -6.09104e-01  1.27932e+00 -3.60889e+00
6
# CELL(abcABC):  459.05226   459.05226   459.05226    90.00000    90.00000    90.00000  Step:          10  Bead:       0 x_centroid{angstrom}  cell{atomic_unit}
       C -3.42252e-01 -8.85833e-02  9.38975e-02
       O  8.51462e-01  2.45541e-01 -1.86415e-01
       H -9.30262e-02  7.58296e-01 -7.53972e-01
       H -5.06241e-01 -9.31272e-01  7.73864e-01
       L -4.51989e+00 -2.21242e+00  5.84140e+00
       L -6.24107e-01  1.30657e+00 -3.79881e+00
6
# CELL(abcABC):  459.05226   459.05226   459.05226    90.00000    90.00000    90.00000  Step:          11  Bead:       0 x_centroid{angstrom}  cell{atomic_unit}
       C -3.41710e-01 -8.54004e-02  9.46342e-02
       O  8.52043e-01  2.43119e-01 -1.86445e-01
       H -1.02225e-01  7.49842e-01 -7.59400e-01
       H -5.12551e-01 -9.22192e-01  7.70857e-01
       L -4.81971e+00 -2.37943e+00  6.20350e+00
       L -6.34069e-01  1.26799e+00 -3.93902e+00
6
# CELL(abcABC):  459.05226   459.05226   459.05226    90.00000    90.00000    90.00000  Step:          12  Bead:       0 x_centroid{angstrom}  cell{atomic_unit}
       C -3.40858e-01 -8.15849e-02  9.49648e-02
       O  8.52485e-01  2.40316e-01 -1.86279e-01
       H -1.14035e-01  7.40158e-01 -7.63195e-01
       H -5.17750e-01 -9.13382e-01  7.67991e-01
       L -5.12083e+00 -2.51822e+00  6.50500e+00
       L -6.31730e-01  1.20858e+00 -4.07928e+00
6
# CELL(abcABC):  459.05226   459.05226   459.05226    90.00000    90.00000    90.00000  Step:          13  Bead:       0 x_centroid{angstrom}  cell{atomic_unit}
       C -3.39849e-01 -7.74837e-02  9.48910e-02
       O  8.53063e-01  2.37369e-01 -1.86052e-01
       H -1.29725e-01  7.29131e-01 -7.64235e-01
       H -5.23104e-01 -9.04396e-01  7.66250e-01
       L -5.42147e+00 -2.57465e+00  6.71100e+00
       L -6.23000e-01  1.17318e+00 -4.18726e+00
6
# CELL(abcABC):  459.05226   459.05226   459.05226    90.00000    90.00000    90.00000  Step:          14  Bead:       0 x_centroid{angstrom}  cell{atomic_unit}
       C -3.38364e-01 -7.33265e-02  9.45014e-02
       O  8.53723e-01  2.34453e-01 -1.85792e-01
       H -1.51861e-01  7.17492e-01 -7.63519e-01
       H -5.28976e-01 -8.95967e-01  7.66060e-01
       L -5.71509e+00 -2.61329e+00  6.81023e+00
       L -6.24429e-01  1.13314e+00 -4.29553e+00
6
# CELL(abcABC):  459.05226   459.05226   459.05226    90.00000    90.00000    90.00000  Step:          15  Bead:       0 x_centroid{angstrom}  cell{atomic_unit}
       C -3.36467e-01 -6.86406e-02  9.37629e-02
       O  8.54556e-01  2.31233e-01 -1.85425e-01
       H -1.81580e-01  7.05073e-01 -7.61244e-01
       H -5.34947e-01 -8.88188e-01  7.66812e-01
       L -5.97833e+00 -2.68030e+00  6.81909e+00
       L -6.12681e-01  1.05740e+00 -4.40111e+00
6
# CELL(abcABC):  459.05226   459.05226   459.05226    90.00000    90.00000    90.00000  Step:          16  Bead:       0 x_centroid{angstrom}  cell{atomic_unit}
       C -3.34107e-01 -6.34292e-02  9.23284e-02
       O  8.55657e-01  2.27727e-01 -1.84765e-01
       H -2.19646e-01  6.91869e-01 -7.56812e-01
       H -5.42359e-01 -8.81355e-01  7.69052e-01
       L -6.19889e+00 -2.74304e+00  6.79195e+00
       L -6.01320e-01  9.69478e-01 -4.46538e+00
6
# CELL(abcABC):  459.05226   459.05226   459.05226    90.00000    90.00000    90.00000  Step:          17  Bead:       0 x_centroid{angstrom}  cell{atomic_unit}
       C -3.31192e-01 -5.76179e-02  9.04287e-02
       O  8.57035e-01  2.23716e-01 -1.83839e-01
       H -2.69160e-01  6.78189e-01 -7.52578e-01
       H -5.49339e-01 -8.73167e-01  7.72780e-01
       L -6.41536e+00 -2.81401e+00  6.74710e+00
       L -6.20442e-01  8.84511e-01 -4.46459e+00
6
# CELL(abcABC):  459.05226   459.05226   459.05226    90.00000    90.00000    90.00000  Step:          18  Bead:       0 x_centroid{angstrom}  cell{atomic_unit}
       C -3.27673e-01 -5.14661e-02  8.79502e-02
       O  8.58783e-01  2.19361e-01 -1.82599e-01
       H -3.30441e-01  6.64147e-01 -7.46921e-01
       H -5.57676e-01 -8.63223e-01  7.77033e-01
       L -6.52132e+00 -2.84765e+00  6.59203e+00
       L -6.10228e-01  7.82940e-01 -4.43181e+00
6
# CELL(abcABC):  459.05226   459.05226   459.05226    90.00000    90.00000    90.00000  Step:          19  Bead:       0 x_centroid{angstrom}  cell{atomic_unit}
       C -3.23223e-01 -4.51868e-02  8.49867e-02
       O  8.60703e-01  2.14952e-01 -1.81038e-01
       H -4.03861e-01  6.50003e-01 -7.40117e-01
       H -5.67726e-01 -8.53865e-01  7.80840e-01
       L -6.59070e+00 -2.85896e+00  6.35922e+00
       L -6.07857e-01  6.96798e-01 -4.32228e+00
6
# CELL(abcABC):  459.05226   459.05226   459.05226    90.00000    90.00000    90.00000  Step:          20  Bead:       0 x_centroid{angstrom}  cell{atomic_unit}
       C -3.17834e-01 -3.84714e-02  8.14247e-02
       O  8.62974e-01  2.10135e-01 -1.79005e-01
       H -4.91232e-01  6.34492e-01 -7.33454e-01
       H -5.80601e-01 -8.41889e-01  7.84421e-01
       L -6.60251e+00 -2.83192e+00  6.06585e+00
       L -6.38739e-01  6.08349e-01 -4.17120e+00
6
# CELL(abcABC):  459.05226   459.05226   459.05226    90.00000    90.00000    90.00000  Step:          21  Bead:       0 x_centroid{angstrom}  cell{atomic_unit}
       C -3.11733e-01 -3.14145e-02  7.75256e-02
       O  8.65552e-01  2.04776e-01 -1.76677e-01
       H -5.90572e-01  6.20076e-01 -7.26985e-01
       H -5.94914e-01 -8.26467e-01  7.87538e-01
       L -6.54398e+00 -2.77909e+00  5.72862e+00
       L -6.27074e-01  5.24064e-01 -3.96171e+00
6
# CELL(abcABC):  459.05226   459.05226   459.05226    90.00000    90.00000    90.00000  Step:          22  Bead:       0 x_centroid{angstrom}  cell{atomic_unit}
       C -3.04788e-01 -2.40452e-02  7.31624e-02
       O  8.68298e-01  1.99141e-01 -1.73989e-01
       H -7.01255e-01  6.03983e-01 -7.19578e-01
       H -6.10639e-01 -8.08757e-01  7.89540e-01
       L -6.43008e+00 -2.70695e+00  5.29613e+00
       L -6.03426e-01  4.57344e-01 -3.68410e+00
6
# CELL(abcABC):  459.05226   459.05226   459.05226    90.00000    90.00000    90.00000  Step:          23  Bead:       0 x_centroid{angstrom}  cell{atomic_unit}
       C -2.96920e-01 -1.63994e-02  6.83005e-02
       O  8.70921e-01  1.93282e-01 -1.70862e-01
       H -8.19780e-01  5.86172e-01 -7.12428e-01
       H -6.27612e-01 -7.89069e-01  7.90829e-01
       L -6.25581e+00 -2.61246e+00  4.78963e+00
       L -5.97633e-01  4.05274e-01 -3.43165e+00
6
# CELL(abcABC):  459.05226   459.05226   459.05226    90.00000    90.00000    90.00000  Step:          24  Bead:       0 x_centroid{angstrom}  cell{atomic_unit}
       C -2.88658e-01 -8.61736e-03  6.32900e-02
       O  8.73473e-01  1.87330e-01 -1.67708e-01
       H -9.42303e-01  5.64899e-01 -7.02876e-01
       H -6.44209e-01 -7.66094e-01  7.91046e-01
       L -6.00383e+00 -2.50129e+00  4.21618e+00
       L -5.67141e-01  3.87309e-01 -3.10311e+00
6
# CELL(abcABC):  459.05226   459.05226   459.05226    90.00000    90.00000    90.00000  Step:          25  Bead:       0 x_centroid{angstrom}  cell{atomic_unit}
       C -2.80430e-01 -6.43806e-04  5.74421e-02
       O  8.76140e-01  1.81245e-01 -1.64213e-01
       H -1.06563e+00  5.40495e-01 -6.88232e-01
       H -6.61465e-01 -7.40128e-01  7.90764e-01
       L -5.70783e+00 -2.44489e+00  3.62162e+00
       L -4.93728e-01  3.55245e-01 -2.78362e+00
6
# CELL(abcABC):  459.05226   459.05226   459.05226    90.00000    90.00000    90.00000  Step:          26  Bead:       0 x_centroid{angstrom}  cell{atomic_unit}
       C -2.72373e-01  7.53988e-03  5.10143e-02
       O  8.78633e-01  1.75041e-01 -1.60692e-01
       H -1.18559e+00  5.14238e-01 -6.67692e-01
       H -6.77300e-01 -7.12928e-01  7.91088e-01
       L -5.39586e+00 -2.34918e+00  3.00226e+00
       L -3.94369e-01  2.91444e-01 -2.48193e+00
6
# CELL(abcABC):  459.05226   459.05226   459.05226    90.00000    90.00000    90.00000  Step:          27  Bead:       0 x_centroid{angstrom}  cell{atomic_unit}
       C -2.64835e-01  1.57937e-02  4.42426e-02
       O  8.80899e-01  1.68785e-01 -1.57361e-01
       H -1.29791e+00  4.85924e-01 -6.40815e-01
       H -6.91014e-01 -6.83652e-01  7.92242e-01
       L -5.06103e+00 -2.23019e+00  2.37047e+00
       L -2.92868e-01  1.48534e-01 -2.23658e+00
6
# CELL(abcABC):  459.05226   459.05226   459.05226    90.00000    90.00000    90.00000  Step:          28  Bead:       0 x_centroid{angstrom}  cell{atomic_unit}
       C -2.58020e-01  2.41761e-02  3.71760e-02
       O  8.83111e-01  1.62514e-01 -1.54095e-01
       H -1.40149e+00  4.55642e-01 -6.09809e-01
       H -7.03998e-01 -6.53768e-01  7.93807e-01
       L -4.69236e+00 -2.07485e+00  1.74442e+00
       L -2.17667e-01  9.14500e-02 -1.98635e+00
6
# CELL(abcABC):  459.05226   459.05226   459.05226    90.00000    90.00000    90.00000  Step:          29  Bead:       0 x_centroid{angstrom}  cell{atomic_unit}
       C -2.52795e-01  3.24404e-02  3.01580e-02
       O  8.85567e-01  1.56412e-01 -1.51031e-01
       H -1.49425e+00  4.23819e-01 -5.75515e-01
       H -7.12708e-01 -6.23661e-01  7.94701e-01
       L -4.30832e+00 -1.88381e+00  1.06642e+00
       L -1.86549e-01  6.17882e-02 -1.67366e+00
6
# CELL(abcABC):  459.05226   459.05226   459.05226    90.00000    90.00000    90.00000  Step:          30  Bead:       0 x_centroid{angstrom}  cell{atomic_unit}
       C -2.48815e-01  4.04016e-02  2.32636e-02
       O  8.88127e-01  1.50570e-01 -1.48214e-01
       H -1.57567e+00  3.91209e-01 -5.39748e-01
       H -7.19601e-01 -5.93275e-01  7.96575e-01
       L -3.89985e+00 -1.68568e+00  3.33769e-01
       L -1.23618e-01  3.24183e-02 -1.31625e+00
6
# CELL(abcABC):  459.05226   459.05226   459.05226    90.00000    90.00000    90.00000  Step:          31  Bead:       0 x_centroid{angstrom}  cell{atomic_unit}
       C -2.45968e-01  4.78932e-02  1.66441e-02
       O  8.90569e-01  1.45071e-01 -1.45572e-01
       H -1.64468e+00  3.58478e-01 -5.04343e-01
       H -7.23590e-01 -5.62627e-01  7.98282e-01
       L -3.41696e+00 -1.42594e+00 -3.49815e-01
       L -4.86685e-02 -3.07990e-02 -9.30948e-01
6
# CELL(abcABC):  459.05226   459.05226   459.05226    90.00000    90.00000    90.00000  Step:          32  Bead:       0 x_centroid{angstrom}  cell{atomic_unit}
       C -2.44352e-01  5.48923e-02  1.05318e-02
       O  8.92981e-01  1.39803e-01 -1.43347e-01
       H -1.70255e+00  3.27162e-01 -4.69288e-01
       H -7.23579e-01 -5.31183e-01  8.00920e-01
       L -2.87049e+00 -1.14166e+00 -1.03882e+00
       L -2.22816e-02 -1.39814e-01 -5.66491e-01
6
# CELL(abcABC):  459.05226   459.05226   459.05226    90.00000    90.00000    90.00000  Step:          33  Bead:       0 x_centroid{angstrom}  cell{atomic_unit}
       C -2.43986e-01  6.14057e-02  4.93723e-03
       O  8.95561e-01  1.34908e-01 -1.41430e-01
       H -1.75008e+00  2.96276e-01 -4.36680e-01
       H -7.21762e-01 -5.00374e-01  8.04717e-01
       L -2.19204e+00 -7.88896e-01 -1.68272e+00
       L  3.80851e-02 -2.09768e-01 -2.22254e-01
6
# CELL(abcABC):  459.05226   459.05226   459.05226    90.00000    90.00000    90.00000  Step:          34  Bead:       0 x_centroid{angstrom}  cell{atomic_unit}
       C -2.45281e-01  6.75267e-02 -3.58176e-04
       O  8.98506e-01  1.30167e-01 -1.39687e-01
       H -1.78592e+00  2.67911e-01 -4.06776e-01
       H -7.17679e-01 -4.69928e-01  8.10410e-01
       L -1.48306e+00 -3.48961e-01 -2.32946e+00
       L  1.31630e-01 -2.22995e-01  1.00386e-01
6
# CELL(abcABC):  459.05226   459.05226   459.05226    90.00000    90.00000    90.00000  Step:          35  Bead:       0 x_centroid{angstrom}  cell{atomic_unit}
       C -2.47817e-01  7.30365e-02 -4.87206e-03
       O  9.01535e-01  1.25713e-01 -1.38345e-01
       H -1.81100e+00  2.42545e-01 -3.80125e-01
       H -7.10877e-01 -4.39726e-01  8.16432e-01
       L -7.75363e-01  9.99730e-02 -2.96276e+00
       L  1.95930e-01 -2.67222e-01  4.01420e-01
6
# CELL(abcABC):  459.05226   459.05226   459.05226    90.00000    90.00000    90.00000  Step:          36  Bead:       0 x_centroid{angstrom}  cell{atomic_unit}
       C -2.51192e-01  7.82098e-02 -9.00973e-03
       O  9.04326e-01  1.21419e-01 -1.37137e-01
       H -1.82513e+00  2.20071e-01 -3.58565e-01
       H -7.01284e-01 -4.10963e-01  8.25204e-01
       L -7.20325e-02  5.33391e-01 -3.57020e+00
       L  3.34330e-01 -2.90114e-01  6.35362e-01
6
# CELL(abcABC):  459.05226   459.05226   459.05226    90.00000    90.00000    90.00000  Step:          37  Bead:       0 x_centroid{angstrom}  cell{atomic_unit}
       C -2.55195e-01  8.29328e-02 -1.24792e-02
       O  9.06810e-01  1.17386e-01 -1.36264e-01
       H -1.82863e+00  2.01488e-01 -3.42190e-01
       H -6.89975e-01 -3.84893e-01  8.36485e-01
       L  6.02593e-01  9.77012e-01 -4.14490e+00
       L  5.08122e-01 -2.71441e-01  8.93392e-01
6
# CELL(abcABC):  459.05226   459.05226   459.05226    90.00000    90.00000    90.00000  Step:          38  Bead:       0 x_centroid{angstrom}  cell{atomic_unit}
       C -2.60095e-01  8.74219e-02 -1.54705e-02
       O  9.09294e-01  1.13375e-01 -1.35580e-01
       H -1.82280e+00  1.86075e-01 -3.31641e-01
       H -6.77307e-01 -3.59583e-01  8.50894e-01
       L  1.25350e+00  1.45940e+00 -4.69009e+00
       L  7.09807e-01 -2.55778e-01  1.12989e+00
6
# CELL(abcABC):  459.05226   459.05226   459.05226    90.00000    90.00000    90.00000  Step:          39  Bead:       0 x_centroid{angstrom}  cell{atomic_unit}
       C -2.65937e-01  9.14493e-02 -1.75696e-02
       O  9.11738e-01  1.09593e-01 -1.35550e-01
       H -1.80756e+00  1.73480e-01 -3.24846e-01
       H -6.62151e-01 -3.35196e-01  8.68796e-01
       L  1.86286e+00  1.91955e+00 -5.22402e+00
       L  8.86472e-01 -2.38097e-01  1.37323e+00
6
# CELL(abcABC):  459.05226   459.05226   459.05226    90.00000    90.00000    90.00000  Step:          40  Bead:       0 x_centroid{angstrom}  cell{atomic_unit}
       C -2.71740e-01  9.52985e-02 -1.91715e-02
       O  9.13589e-01  1.05791e-01 -1.35860e-01
       H -1.78187e+00  1.64246e-01 -3.22445e-01
       H -6.48494e-01 -3.11719e-01  8.90564e-01
       L  2.46482e+00  2.36261e+00 -5.73365e+00
       L  1.02219e+00 -2.41260e-01  1.59176e+00
6
# CELL(abcABC):  459.05226   459.05226   459.05226    90.00000    90.00000    90.00000  Step:          41  Bead:       0 x_centroid{angstrom}  cell{atomic_unit}
       C -2.77815e-01  9.86773e-02 -2.02621e-02
       O  9.14966e-01  1.02336e-01 -1.36561e-01
       H -1.74662e+00  1.56468e-01 -3.24340e-01
       H -6.33560e-01 -2.89620e-01  9.16698e-01
       L  3.03631e+00  2.81364e+00 -6.16331e+00
       L  1.12773e+00 -2.11421e-01  1.78985e+00
6
# CELL(abcABC):  459.05226   459.05226   459.05226    90.00000    90.00000    90.00000  Step:          42  Bead:       0 x_centroid{angstrom}  cell{atomic_unit}
       C -2.84381e-01  1.01269e-01 -2.05276e-02
       O  9.16010e-01  9.93444e-02 -1.37692e-01
       H -1.70063e+00  1.51683e-01 -3.31456e-01
       H -6.18241e-01 -2.68485e-01  9.45032e-01
       L  3.61112e+00  3.23121e+00 -6.49524e+00
       L  1.19788e+00 -1.71502e-01  1.93154e+00
6
# CELL(abcABC):  459.05226   459.05226   459.05226    90.00000    90.00000    90.00000  Step:          43  Bead:       0 x_centroid{angstrom}  cell{atomic_unit}
       C -2.91050e-01  1.03578e-01 -2.00422e-02
       O  9.16340e-01  9.63802e-02 -1.39174e-01
       H -1.64497e+00  1.50543e-01 -3.43484e-01
       H -5.99990e-01 -2.48005e-01  9.74848e-01
       L  4.13713e+00  3.58287e+00 -6.66516e+00
       L  1.24715e+00 -1.65717e-01  2.02545e+00
6
# CELL(abcABC):  459.05226   459.05226   459.05226    90.00000    90.00000    90.00000  Step:          44  Bead:       0 x_centroid{angstrom}  cell{atomic_unit}
       C -2.97749e-01  1.05095e-01 -1.84981e-02
       O  9.15992e-01  9.37601e-02 -1.41084e-01
       H -1.57861e+00  1.52238e-01 -3.61370e-01
       H -5.81250e-01 -2.26361e-01  1.00466e+00
       L  4.58029e+00  3.89454e+00 -6.76191e+00
       L  1.29503e+00 -1.66163e-01  2.10292e+00
6
# CELL(abcABC):  459.05226   459.05226   459.05226    90.00000    90.00000    90.00000  Step:          45  Bead:       0 x_centroid{angstrom}  cell{atomic_unit}
       C -3.04618e-01  1.06248e-01 -1.61160e-02
       O  9.15073e-01  9.12545e-02 -1.43372e-01
       H -1.50083e+00  1.55617e-01 -3.83899e-01
       H -5.62850e-01 -2.03806e-01  1.03512e+00
       L  5.02972e+00  4.15063e+00 -6.80676e+00
       L  1.28643e+00 -2.29997e-01  2.15935e+00
6
# CELL(abcABC):  459.05226   459.05226   459.05226    90.00000    90.00000    90.00000  Step:          46  Bead:       0 x_centroid{angstrom}  cell{atomic_unit}
       C -3.11682e-01  1.07106e-01 -1.29444e-02
       O  9.13612e-01  8.87752e-02 -1.45796e-01
       H -1.41188e+00  1.60283e-01 -4.11222e-01
       H -5.44660e-01 -1.79442e-01  1.06309e+00
       L  5.42960e+00  4.40589e+00 -6.78442e+00
       L  1.31365e+00 -3.01123e-01  2.18894e+00
6
# CELL(abcABC):  459.05226   459.05226   459.05226    90.00000    90.00000    90.00000  Step:          47  Bead:       0 x_centroid{angstrom}  cell{atomic_unit}
       C -3.18170e-01  1.07553e-01 -8.83613e-03
       O  9.11369e-01  8.64518e-02 -1.48490e-01
       H -1.31557e+00  1.65694e-01 -4.43385e-01
       H -5.28234e-01 -1.53351e-01  1.08903e+00
       L  5.76924e+00  4.61770e+00 -6.67097e+00
       L  1.30115e+00 -4.09442e-01  2.14292e+00
6
# CELL(abcABC):  459.05226   459.05226   459.05226    90.00000    90.00000    90.00000  Step:          48  Bead:       0 x_centroid{angstrom}  cell{atomic_unit}
       C -3.24069e-01  1.07235e-01 -3.72323e-03
       O  9.08611e-01  8.44981e-02 -1.51371e-01
       H -1.21642e+00  1.72667e-01 -4.81721e-01
       H -5.13448e-01 -1.25548e-01  1.11213e+00
       L  6.05715e+00  4.75476e+00 -6.49242e+00
       L  1.24839e+00 -5.08225e-01  2.05685e+00
6
# CELL(abcABC):  459.05226   459.05226   459.05226    90.00000    90.00000    90.00000  Step:          49  Bead:       0 x_centroid{angstrom}  cell{atomic_unit}
       C -3.28647e-01  1.06423e-01  2.91098e-03
       O  9.05203e-01  8.26505e-02 -1.54399e-01
       H -1.12142e+00  1.81842e-01 -5.29664e-01
       H -4.99877e-01 -9.57027e-02  1.12906e+00
       L  6.23983e+00  4.78229e+00 -6.26105e+00
       L  1.22216e+00 -5.63432e-01  1.85383e+00
6
# CELL(abcABC):  459.05226   459.05226   459.05226    90.00000    90.00000    90.00000  Step:          50  Bead:       0 x_centroid{angstrom}  cell{atomic_unit}
       C -3.31090e-01  1.05131e-01  1.14381e-02
       O  9.01150e-01  8.09661e-02 -1.57787e-01
       H -1.03948e+00  1.93193e-01 -5.89817e-01
       H -4.88479e-01 -6.48950e-02  1.14131e+00
       L  6.43083e+00  4.74944e+00 -5.97713e+00
       L  1.22723e+00 -5.78878e-01  1.69377e+00
6
# CELL(abcABC):  459.05226   459.05226   459.05226    90.00000    90.00000    90.00000  Step:          51  Bead:       0 x_centroid{angstrom}  cell{atomic_unit}
       C -3.31100e-01  1.03338e-01  2.19320e-02
       O  8.96465e-01  7.93429e-02 -1.61450e-01
       H -9.73017e-01  2.07058e-01 -6.64406e-01
       H -4.80492e-01 -3.16164e-02  1.14896e+00
       L  6.49651e+00  4.70782e+00 -5.68184e+00
       L  1.23112e+00 -5.71629e-01  1.48583e+00
6
# CELL(abcABC):  459.05226   459.05226   459.05226    90.00000    90.00000    90.00000  Step:          52  Bead:       0 x_centroid{angstrom}  cell{atomic_unit}
       C -3.28984e-01  1.01163e-01  3.42891e-02
       O  8.91236e-01  7.77393e-02 -1.65519e-01
       H -9.19093e-01  2.23121e-01 -7.50300e-01
       H -4.76622e-01  3.70649e-03  1.15212e+00
       L  6.50474e+00  4.63254e+00 -5.35218e+00
       L  1.20445e+00 -5.06210e-01  1.29799e+00
6
# CELL(abcABC):  459.05226   459.05226   459.05226    90.00000    90.00000    90.00000  Step:          53  Bead:       0 x_centroid{angstrom}  cell{atomic_unit}
       C -3.25120e-01  9.87404e-02  4.75098e-02
       O  8.85691e-01  7.63165e-02 -1.69555e-01
       H -8.74810e-01  2.38888e-01 -8.43032e-01
       H -4.78852e-01  3.94444e-02  1.15127e+00
       L  6.43427e+00  4.47077e+00 -4.97906e+00
       L  1.15546e+00 -4.49538e-01  1.09505e+00
6
# CELL(abcABC):  459.05226   459.05226   459.05226    90.00000    90.00000    90.00000  Step:          54  Bead:       0 x_centroid{angstrom}  cell{atomic_unit}
       C -3.20224e-01  9.64750e-02  6.07037e-02
       O  8.80002e-01  7.49059e-02 -1.73433e-01
       H -8.34958e-01  2.54049e-01 -9.34678e-01
       H -4.86667e-01  7.37837e-02  1.14716e+00
       L  6.33656e+00  4.20856e+00 -4.59776e+00
       L  1.10864e+00 -3.97628e-01  8.96585e-01
6
# CELL(abcABC):  459.05226   459.05226   459.05226    90.00000    90.00000    90.00000  Step:          55  Bead:       0 x_centroid{angstrom}  cell{atomic_unit}
       C -3.14128e-01  9.43667e-02  7.32152e-02
       O  8.74077e-01  7.34454e-02 -1.77055e-01
       H -8.00366e-01  2.68211e-01 -1.01997e+00
       H -4.99762e-01  1.07994e-01  1.14073e+00
       L  6.21272e+00  3.96135e+00 -4.19067e+00
       L  1.07214e+00 -2.71283e-01  7.23643e-01
6
# CELL(abcABC):  459.05226   459.05226   459.05226    90.00000    90.00000    90.00000  Step:          56  Bead:       0 x_centroid{angstrom}  cell{atomic_unit}
       C -3.07342e-01  9.25463e-02  8.48403e-02
       O  8.68163e-01  7.19373e-02 -1.80613e-01
       H -7.69659e-01  2.79887e-01 -1.09491e+00
       H -5.17314e-01  1.42041e-01  1.13352e+00
       L  5.97115e+00  3.68154e+00 -3.80206e+00
       L  1.03673e+00 -1.60533e-01  5.25493e-01
6
# CELL(abcABC):  459.05226   459.05226   459.05226    90.00000    90.00000    90.00000  Step:          57  Bead:       0 x_centroid{angstrom}  cell{atomic_unit}
       C -2.99799e-01  9.09532e-02  9.56640e-02
       O  8.62251e-01  7.04384e-02 -1.84199e-01
       H -7.42792e-01  2.89148e-01 -1.15930e+00
       H -5.40052e-01  1.75619e-01  1.12574e+00
       L  5.71615e+00  3.39399e+00 -3.35744e+00
       L  9.81217e-01  9.52804e-03  2.89131e-01
6
# CELL(abcABC):  459.05226   459.05226   459.05226    90.00000    90.00000    90.00000  Step:          58  Bead:       0 x_centroid{angstrom}  cell{atomic_unit}
       C -2.91684e-01  8.98255e-02  1.04949e-01
       O  8.56308e-01  6.86358e-02 -1.87489e-01
       H -7.19698e-01  2.97665e-01 -1.21052e+00
       H -5.65351e-01  2.09229e-01  1.11844e+00
       L  5.46628e+00  3.11347e+00 -2.87589e+00
       L  9.48354e-01  1.50663e-01  2.79855e-02
6
# CELL(abcABC):  459.05226   459.05226   459.05226    90.00000    90.00000    90.00000  Step:          59  Bead:       0 x_centroid{angstrom}  cell{atomic_unit}
       C -2.83177e-01  8.88705e-02  1.12390e-01
       O  8.50616e-01  6.69069e-02 -1.90323e-01
       H -7.01247e-01  3.04219e-01 -1.24927e+00
       H -5.94613e-01  2.41604e-01  1.11335e+00
       L  5.15249e+00  2.78435e+00 -2.33719e+00
       L  8.83428e-01  2.87303e-01 -2.73575e-01
6
# CELL(abcABC):  459.05226   459.05226   459.05226    90.00000    90.00000    90.00000  Step:          60  Bead:       0 x_centroid{angstrom}  cell{atomic_unit}
       C -2.74408e-01  8.80697e-02  1.18023e-01
       O  8.45328e-01  6.51910e-02 -1.92752e-01
       H -6.88681e-01  3.09491e-01 -1.27510e+00
       H -6.27533e-01  2.73319e-01  1.11048e+00
       L  4.79710e+00  2.31899e+00 -1.80185e+00
       L  8.50884e-01  3.69830e-01 -5.48754e-01
6
# CELL(abcABC):  459.05226   459.05226   459.05226    90.00000    90.00000    90.00000  Step:          61  Bead:       0 x_centroid{angstrom}  cell{atomic_unit}
       C -2.65836e-01  8.74600e-02  1.22609e-01
       O  8.40556e-01  6.35321e-02 -1.95184e-01
       H -6.79793e-01  3.12605e-01 -1.28943e+00
       H -6.62597e-01  3.04019e-01  1.10863e+00
       L  4.45860e+00  1.85074e+00 -1.26758e+00
       L  7.82189e-01  4.41810e-01 -8.40619e-01
6
# CELL(abcABC):  459.05226   459.05226   459.05226    90.00000    90.00000    90.00000  Step:          62  Bead:       0 x_centroid{angstrom}  cell{atomic_unit}
       C -2.57975e-01  8.72492e-02  1.25753e-01
       O  8.36713e-01  6.17803e-02 -1.97180e-01
       H -6.76209e-01  3.13569e-01 -1.29190e+00
       H -6.98607e-01  3.33595e-01  1.10517e+00
       L  4.08202e+00  1.35615e+00 -6.95985e-01
       L  7.14157e-01  5.29921e-01 -1.10681e+00
6
# CELL(abcABC):  459.05226   459.05226   459.05226    90.00000    90.00000    90.00000  Step:          63  Bead:       0 x_centroid{angstrom}  cell{atomic_unit}
       C -2.50833e-01  8.79653e-02  1.27505e-01
       O  8.33660e-01  5.96726e-02 -1.98871e-01
       H -6.77132e-01  3.12422e-01 -1.28321e+00
       H -7.34046e-01  3.59887e-01  1.10228e+00
       L  3.62785e+00  8.55851e-01 -1.27640e-01
       L  6.80030e-01  6.21747e-01 -1.39823e+00
6
# CELL(abcABC):  459.05226   459.05226   459.05226    90.00000    90.00000    90.00000  Step:          64  Bead:       0 x_centroid{angstrom}  cell{atomic_unit}
       C -2.44952e-01  8.94163e-02  1.28141e-01
       O  8.31769e-01  5.74020e-02 -2.00214e-01
       H -6.82534e-01  3.08848e-01 -1.26439e+00
       H -7.68408e-01  3.82396e-01  1.09704e+00
       L  3.12132e+00  3.92374e-01  4.33221e-01
       L  6.18437e-01  7.47165e-01 -1.64364e+00
6
# CELL(abcABC):  459.05226   459.05226   459.05226    90.00000    90.00000    90.00000  Step:          65  Bead:       0 x_centroid{angstrom}  cell{atomic_unit}
       C -2.40627e-01  9.12794e-02  1.27741e-01
       O  8.31267e-01  5.50869e-02 -2.01285e-01
       H -6.93318e-01  3.03149e-01 -1.23582e+00
       H -8.00822e-01  4.02841e-01  1.09005e+00
       L  2.55870e+00 -1.05177e-01  1.03735e+00
       L  5.00024e-01  8.81303e-01 -1.89756e+00
6
# CELL(abcABC):  459.05226   459.05226   459.05226    90.00000    90.00000    90.00000  Step:          66  Bead:       0 x_centroid{angstrom}  cell{atomic_unit}
       C -2.37503e-01  9.39876e-02  1.26558e-01