6
# CELL(abcABC):  459.05226   459.05226   459.05226    90.00000    90.00000    90.00000  Step:           0  Bead:       0 x_centroid{angstrom}  cell{atomic_unit}
       C -3.39887e-01 -1.13437e-01  8.06659e-02
       O  8.43483e-01  2.62672e-01 -1.81512e-01
       H -7.35799e-02  8.16467e-01 -6.61432e-01
       H -4.30016e-01 -9.65701e-01  7.62278e-01
       L  0.00000e+00  0.00000e+00  0.00000e+00
       L  0.00000e+00  0.00000e+00  0.00000e+00
6
# CELL(abcABC):  459.05226   459.05226   459.05226    90.00000    90.00000    90.00000  Step:           1  Bead:       0 x_centroid{angstrom}  cell{atomic_unit}
       C -3.38538e-01 -1.14338e-01  7.84533e-02
       O  8.42420e-01  2.62705e-01 -1.80477e-01
       H -7.80298e-02  8.22378e-01 -6.60826e-01
       H -4.24434e-01 -9.61313e-01  7.71918e-01
       L -5.21796e-01  1.88532e-01 -6.11088e-01
       L -8.16699e-02 -3.67702e-01  3.88689e-02
6
# CELL(abcABC):  459.05226   459.05226   459.05226    90.00000    90.00000    90.00000  Step:           2  Bead:       0 x_centroid{angstrom}  cell{atomic_unit}
       C -3.37108e-01 -1.15296e-01  7.64019e-02
       O  8.41223e-01  2.62758e-01 -1.79626e-01
       H -8.19903e-02  8.27834e-01 -6.58800e-01
       H -4.18206e-01 -9.56079e-01  7.81111e-01
       L -1.00210e+00  3.89270e-01 -1.19198e+00
       L -1.68667e-01 -7.88542e-01  8.17923e-02
6
# CELL(abcABC):  459.05226   459.05226   459.05226    90.00000    90.00000    90.00000  Step:           3  Bead:       0 x_centroid{angstrom}  cell{atomic_unit}
       C -3.35599e-01 -1.16224e-01  7.44228e-02
       O  8.39975e-01  2.62765e-01 -1.78896e-01
       H -8.63293e-02  8.32738e-01 -6.57373e-01
       H -4.11759e-01 -9.49933e-01  7.91943e-01
       L -1.41286e+00  5.87545e-01 -1.71932e+00
       L -2.73179e-01 -1.17114e+00  1.30259e-01
6
# CELL(abcABC):  459.05226   459.05226   459.05226    90.00000    90.00000    90.00000  Step:           4  Bead:       0 x_centroid{angstrom}  cell{atomic_unit}
       C -3.34215e-01 -1.17084e-01  7.23300e-02
       O  8.38884e-01  2.62751e-01 -1.78178e-01
       H -9.18134e-02  8.37149e-01 -6.53818e-01
       H -4.05169e-01 -9.43746e-01  8.02200e-01
       L -1.81056e+00  7.38648e-01 -2.30223e+00
       L -3.88680e-01 -1.55980e+00  2.03562e-01
6
# CELL(abcABC):  459.05226   459.05226   459.05226    90.00000    90.00000    90.00000  Step:           5  Bead:       0 x_centroid{angstrom}  cell{atomic_unit}
       C -3.32826e-01 -1.18091e-01  7.01298e-02
       O  8.37834e-01  2.62864e-01 -1.77354e-01
       H -9.74996e-02  8.40465e-01 -6.49957e-01
       H -3.99119e-01 -9.36749e-01  8.11764e-01
       L -2.17239e+00  8.92744e-01 -2.87388e+00
       L -5.01653e-01 -1.91199e+00  2.64560e-01
6
# CELL(abcABC):  459.05226   459.05226   459.05226    90.00000    90.00000    90.00000  Step:           6  Bead:       0 x_centroid{angstrom}  cell{atomic_unit}
       C -3.31606e-01 -1.19190e-01  6.78187e-02
       O  8.37045e-01  2.63109e-01 -1.76564e-01
       H -1.04083e-01  8.43062e-01 -6.44507e-01
       H -3.94306e-01 -9.30053e-01  8.21584e-01
       L -2.50444e+00  1.03893e+00 -3.41993e+00
       L -6.14353e-01 -2.20632e+00  3.03786e-01
6
# CELL(abcABC):  459.05226   459.05226   459.05226    90.00000    90.00000    90.00000  Step:           7  Bead:       0 x_centroid{angstrom}  cell{atomic_unit}
       C -3.30353e-01 -1.20547e-01  6.56353e-02
       O  8.36300e-01  2.63446e-01 -1.75750e-01
       H -1.12376e-01  8.46550e-01 -6.39569e-01
       H -3.88926e-01 -9.22693e-01  8.29988e-01
       L -2.74175e+00  1.22276e+00 -3.89646e+00
       L -6.97042e-01 -2.44907e+00  3.35415e-01
6
# CELL(abcABC):  459.05226   459.05226   459.05226    90.00000    90.00000    90.00000  Step:           8  Bead:       0 x_centroid{angstrom}  cell{atomic_unit}
       C -3.29293e-01 -1.21547e-01  6.33860e-02
       O  8.35926e-01  2.63677e-01 -1.74915e-01
       H -1.23090e-01  8.48724e-01 -6.33090e-01
       H -3.84761e-01 -9.16596e-01  8.37291e-01
       L -2.95959e+00  1.37968e+00 -4.34328e+00
       L -7.79075e-01 -2.64189e+00  3.51832e-01
6
# CELL(abcABC):  459.05226   459.05226   459.05226    90.00000    90.00000    90.00000  Step:           9  Bead:       0 x_centroid{angstrom}  cell{atomic_unit}
       C -3.28165e-01 -1.22504e-01  6.09970e-02
       O  8.35790e-01  2.63908e-01 -1.73983e-01
       H -1.36199e-01  8.50429e-01 -6.25934e-01
       H -3.82785e-01 -9.10544e-01  8.44016e-01
       L -3.13873e+00  1.50044e+00 -4.71236e+00
       L -8.59518e-01 -2.78945e+00  3.36315e-01
6
# CELL(abcABC):  459.05226   459.05226   459.05226    90.00000    90.00000    90.00000  Step:          10  Bead:       0 x_centroid{angstrom}  cell{atomic_unit}
       C -3.27090e-01 -1.23537e-01  5.85612e-02
       O  8.36038e-01  2.64143e-01 -1.73065e-01
       H -1.52967e-01  8.50721e-01 -6.18126e-01
       H -3.82606e-01 -9.02289e-01  8.50878e-01
       L -3.28097e+00  1.62806e+00 -5.10663e+00
       L -9.95295e-01 -2.86140e+00  3.32900e-01
6
# CELL(abcABC):  459.05226   459.05226   459.05226    90.00000    90.00000    90.00000  Step:          11  Bead:       0 x_centroid{angstrom}  cell{atomic_unit}
       C -3.25898e-01 -1.24386e-01  5.61048e-02
       O  8.36508e-01  2.64345e-01 -1.71983e-01
       H -1.72466e-01  8.48949e-01 -6.10484e-01
       H -3.84665e-01 -8.93618e-01  8.55561e-01
       L -3.36980e+00  1.71749e+00 -5.49193e+00
       L -1.11578e+00 -2.92300e+00  2.97410e-01
6
# CELL(abcABC):  459.05226   459.05226   459.05226    90.00000    90.00000    90.00000  Step:          12  Bead:       0 x_centroid{angstrom}  cell{atomic_unit}
       C -3.24805e-01 -1.25115e-01  5.33816e-02
       O  8.37533e-01  2.64454e-01 -1.70705e-01
       H -1.97903e-01  8.46068e-01 -6.01542e-01
       H -3.88396e-01 -8.83809e-01  8.58978e-01
       L -3.46206e+00  1.79474e+00 -5.87776e+00
       L -1.23671e+00 -2.95261e+00  3.23272e-01
6
# CELL(abcABC):  459.05226   459.05226   459.05226    90.00000    90.00000    90.00000  Step:          13  Bead:       0 x_centroid{angstrom}  cell{atomic_unit}
       C -3.23654e-01 -1.25381e-01  5.06092e-02
       O  8.38981e-01  2.64346e-01 -1.69345e-01
       H -2.29715e-01  8.41301e-01 -5.92445e-01
       H -3.93222e-01 -8.74175e-01  8.61511e-01
       L -3.46932e+00  1.84155e+00 -6.22573e+00
       L -1.35970e+00 -2.95444e+00  3.32404e-01
6
# CELL(abcABC):  459.05226   459.05226   459.05226    90.00000    90.00000    90.00000  Step:          14  Bead:       0 x_centroid{angstrom}  cell{atomic_unit}
       C -3.22033e-01 -1.25261e-01  4.76916e-02
       O  8.40820e-01  2.64072e-01 -1.67779e-01
       H -2.71161e-01  8.34523e-01 -5.83412e-01
       H -4.00246e-01 -8.64484e-01  8.62587e-01
       L -3.40007e+00  1.86332e+00 -6.53398e+00
       L -1.49774e+00 -2.97540e+00  2.94019e-01
6
# CELL(abcABC):  459.05226   459.05226   459.05226    90.00000    90.00000    90.00000  Step:          15  Bead:       0 x_centroid{angstrom}  cell{atomic_unit}
       C -3.19833e-01 -1.24546e-01  4.47533e-02
       O  8.43023e-01  2.63444e-01 -1.66191e-01
       H -3.23220e-01  8.25902e-01 -5.73752e-01
       H -4.09374e-01 -8.54396e-01  8.62889e-01
       L -3.28635e+00  1.83904e+00 -6.75687e+00
       L -1.60352e+00 -2.99830e+00  2.35063e-01
6
# CELL(abcABC):  459.05226   459.05226   459.05226    90.00000    90.00000    90.00000  Step:          16  Bead:       0 x_centroid{angstrom}  cell{atomic_unit}
       C -3.16820e-01 -1.23035e-01  4.16424e-02
       O  8.45624e-01  2.62418e-01 -1.64426e-01
       H -3.88429e-01  8.14962e-01 -5.63476e-01
       H -4.21338e-01 -8.45163e-01  8.61792e-01
       L -3.18636e+00  1.79978e+00 -6.93989e+00
       L -1.73332e+00 -2.97921e+00  1.76809e-01
6
# CELL(abcABC):  459.05226   459.05226   459.05226    90.00000    90.00000    90.00000  Step:          17  Bead:       0 x_centroid{angstrom}  cell{atomic_unit}
       C -3.13111e-01 -1.20790e-01  3.82393e-02
       O  8.48716e-01  2.60978e-01 -1.62437e-01
       H -4.66681e-01  8.01511e-01 -5.51749e-01
       H -4.36365e-01 -8.35571e-01  8.59152e-01
       L -3.08629e+00  1.71823e+00 -7.07470e+00
       L -1.83254e+00 -2.95511e+00  1.06095e-01
6
# CELL(abcABC):  459.05226   459.05226   459.05226    90.00000    90.00000    90.00000  Step:          18  Bead:       0 x_centroid{angstrom}  cell{atomic_unit}
       C -3.08280e-01 -1.17960e-01  3.45053e-02
       O  8.51912e-01  2.59301e-01 -1.60069e-01
       H -5.56953e-01  7.84409e-01 -5.40557e-01
       H -4.54402e-01 -8.25514e-01  8.54931e-01
       L -2.97894e+00  1.55720e+00 -7.07964e+00
       L -1.91732e+00 -2.89838e+00  1.88526e-03
6
# CELL(abcABC):  459.05226   459.05226   459.05226    90.00000    90.00000    90.00000  Step:          19  Bead:       0 x_centroid{angstrom}  cell{atomic_unit}
       C -3.02155e-01 -1.14105e-01  3.07541e-02
       O  8.55064e-01  2.57086e-01 -1.57664e-01
       H -6.58958e-01  7.64929e-01 -5.28031e-01
       H -4.75479e-01 -8.16807e-01  8.48958e-01
       L -2.78630e+00  1.42443e+00 -7.01584e+00
       L -1.99630e+00 -2.77445e+00 -1.31170e-01
6
# CELL(abcABC):  459.05226   459.05226   459.05226    90.00000    90.00000    90.00000  Step:          20  Bead:       0 x_centroid{angstrom}  cell{atomic_unit}
       C -2.95170e-01 -1.09312e-01  2.71561e-02
       O  8.58365e-01  2.54388e-01 -1.55352e-01
       H -7.69982e-01  7.41588e-01 -5.16123e-01
       H -5.00150e-01 -8.07778e-01  8.43247e-01
       L -2.58791e+00  1.29960e+00 -6.93757e+00
       L -2.07767e+00 -2.62933e+00 -2.42821e-01
6
# CELL(abcABC):  459.05226   459.05226   459.05226    90.00000    90.00000    90.00000  Step:          21  Bead:       0 x_centroid{angstrom}  cell{atomic_unit}
       C -2.87167e-01 -1.03253e-01  2.34633e-02
       O  8.61584e-01  2.51076e-01 -1.52921e-01
       H -8.89314e-01  7.13296e-01 -5.01760e-01
       H -5.27360e-01 -7.99131e-01  8.34257e-01
       L -2.35906e+00  1.19579e+00 -6.76894e+00
       L -2.15760e+00 -2.48800e+00 -3.28171e-01
6
# CELL(abcABC):  459.05226   459.05226   459.05226    90.00000    90.00000    90.00000  Step:          22  Bead:       0 x_centroid{angstrom}  cell{atomic_unit}
       C -2.78663e-01 -9.61179e-02  1.97325e-02
       O  8.64736e-01  2.47573e-01 -1.50392e-01
       H -1.01208e+00  6.76613e-01 -4.85840e-01
       H -5.56028e-01 -7.91929e-01  8.22592e-01
       L -2.15670e+00  1.10963e+00 -6.53289e+00
       L -2.22630e+00 -2.25610e+00 -4.68626e-01
6
# CELL(abcABC):  459.05226   459.05226   459.05226    90.00000    90.00000    90.00000  Step:          23  Bead:       0 x_centroid{angstrom}  cell{atomic_unit}
       C -2.69737e-01 -8.79315e-02  1.62581e-02
       O  8.67410e-01  2.43723e-01 -1.47957e-01
       H -1.13189e+00  6.34976e-01 -4.68392e-01
       H -5.85141e-01 -7.86807e-01  8.07810e-01
       L -1.94257e+00  1.00503e+00 -6.20438e+00
       L -2.23304e+00 -2.01088e+00 -6.29696e-01
6
# CELL(abcABC):  459.05226   459.05226   459.05226    90.00000    90.00000    90.00000  Step:          24  Bead:       0 x_centroid{angstrom}  cell{atomic_unit}
       C -2.60955e-01 -7.94706e-02  1.27396e-02
       O  8.69847e-01  2.39996e-01 -1.45528e-01
       H -1.24661e+00  5.87981e-01 -4.48625e-01
       H -6.13930e-01 -7.81590e-01  7.91302e-01
       L -1.67632e+00  8.95324e-01 -5.76442e+00
       L -2.17707e+00 -1.68703e+00 -8.60311e-01
6
# CELL(abcABC):  459.05226   459.05226   459.05226    90.00000    90.00000    90.00000  Step:          25  Bead:       0 x_centroid{angstrom}  cell{atomic_unit}
       C -2.52738e-01 -7.05823e-02  9.50993e-03
       O  8.72132e-01  2.36337e-01 -1.43368e-01
       H -1.35424e+00  5.35629e-01 -4.27080e-01
       H -6.40717e-01 -7.77191e-01  7.73785e-01
       L -1.38645e+00  7.73365e-01 -5.24536e+00
       L -2.06213e+00 -1.36548e+00 -1.08075e+00
6
# CELL(abcABC):  459.05226   459.05226   459.05226    90.00000    90.00000    90.00000  Step:          26  Bead:       0 x_centroid{angstrom}  cell{atomic_unit}
       C -2.45371e-01 -6.14681e-02  6.55585e-03
       O  8.74308e-01  2.32679e-01 -1.41366e-01
       H -1.45195e+00  4.80463e-01 -4.05095e-01
       H -6.65605e-01 -7.72677e-01  7.55077e-01
       L -1.04772e+00  6.62547e-01 -4.73666e+00
       L -1.89432e+00 -1.05015e+00 -1.31010e+00
6
# CELL(abcABC):  459.05226   459.05226   459.05226    90.00000    90.00000    90.00000  Step:          27  Bead:       0 x_centroid{angstrom}  cell{atomic_unit}
       C -2.39047e-01 -5.21799e-02  4.07633e-03
       O  8.76268e-01  2.29018e-01 -1.39567e-01
       H -1.53775e+00  4.24533e-01 -3.83817e-01
       H -6.86567e-01 -7.69428e-01  7.34600e-01
       L -6.78086e-01  5.47186e-01 -4.21280e+00
       L -1.73201e+00 -7.06603e-01 -1.49775e+00
6
# CELL(abcABC):  459.05226   459.05226   459.05226    90.00000    90.00000    90.00000  Step:          28  Bead:       0 x_centroid{angstrom}  cell{atomic_unit}
       C -2.33989e-01 -4.28400e-02  2.19140e-03
       O  8.78119e-01  2.25480e-01 -1.38171e-01
       H -1.61169e+00  3.68206e-01 -3.62028e-01
       H -7.02605e-01 -7.68336e-01  7.12912e-01
       L -2.88274e-01  4.16633e-01 -3.64096e+00
       L -1.49822e+00 -3.83942e-01 -1.69247e+00
6
# CELL(abcABC):  459.05226   459.05226   459.05226    90.00000    90.00000    90.00000  Step:          29  Bead:       0 x_centroid{angstrom}  cell{atomic_unit}
       C -2.30578e-01 -3.39448e-02  6.12247e-04
       O  8.80199e-01  2.22285e-01 -1.36804e-01
       H -1.67403e+00  3.11665e-01 -3.41671e-01
       H -7.14254e-01 -7.67137e-01  6.89428e-01
       L  1.10567e-01  2.29334e-01 -3.02337e+00
       L -1.28281e+00 -8.45181e-02 -1.86537e+00
6
# CELL(abcABC):  459.05226   459.05226   459.05226    90.00000    90.00000    90.00000  Step:          30  Bead:       0 x_centroid{angstrom}  cell{atomic_unit}
       C -2.28591e-01 -2.52557e-02 -5.74149e-04
       O  8.82304e-01  2.19198e-01 -1.35701e-01
       H -1.72531e+00  2.57374e-01 -3.23398e-01
       H -7.20408e-01 -7.67436e-01  6.67514e-01
       L  4.91426e-01  5.74546e-02 -2.39402e+00
       L -1.05061e+00  1.77254e-01 -1.98410e+00
6
# CELL(abcABC):  459.05226   459.05226   459.05226    90.00000    90.00000    90.00000  Step:          31  Bead:       0 x_centroid{angstrom}  cell{atomic_unit}
       C -2.28209e-01 -1.70818e-02 -1.52415e-03
       O  8.84661e-01  2.16368e-01 -1.34740e-01
       H -1.76637e+00  2.06184e-01 -3.06767e-01
       H -7.21736e-01 -7.68796e-01  6.46634e-01
       L  9.67917e-01 -9.49614e-02 -1.72848e+00
       L -7.61963e-01  4.44701e-01 -2.07200e+00
6
# CELL(abcABC):  459.05226   459.05226   459.05226    90.00000    90.00000    90.00000  Step:          32  Bead:       0 x_centroid{angstrom}  cell{atomic_unit}
       C -2.29178e-01 -9.34389e-03 -2.01981e-03
       O  8.87151e-01  2.13715e-01 -1.34001e-01
       H -1.79882e+00  1.58302e-01 -2.92440e-01
       H -7.17706e-01 -7.71089e-01  6.26196e-01
       L  1.46224e+00 -1.85673e-01 -1.08560e+00
       L -4.56264e-01  6.96551e-01 -2.20822e+00
6
# CELL(abcABC):  459.05226   459.05226   459.05226    90.00000    90.00000    90.00000  Step:          33  Bead:       0 x_centroid{angstrom}  cell{atomic_unit}
       C -2.31782e-01 -2.41819e-03 -1.75488e-03
       O  8.89958e-01  2.11467e-01 -1.33658e-01
       H -1.82232e+00  1.14691e-01 -2.82101e-01
       H -7.08123e-01 -7.74428e-01  6.07000e-01
       L  1.97305e+00 -2.58801e-01 -4.79184e-01
       L -2.23327e-01  9.63420e-01 -2.33361e+00
6
# CELL(abcABC):  459.05226   459.05226   459.05226    90.00000    90.00000    90.00000  Step:          34  Bead:       0 x_centroid{angstrom}  cell{atomic_unit}
       C -2.35593e-01  3.69933e-03 -1.03880e-03
       O  8.92738e-01  2.09455e-01 -1.33597e-01
       H -1.83688e+00  7.62804e-02 -2.74303e-01
       H -6.92674e-01 -7.77062e-01  5.89453e-01
       L  2.50131e+00 -3.07447e-01  1.19699e-01
       L -4.42336e-02  1.16276e+00 -2.46450e+00
6
# CELL(abcABC):  459.05226   459.05226   459.05226    90.00000    90.00000    90.00000  Step:          35  Bead:       0 x_centroid{angstrom}  cell{atomic_unit}
       C -2.40697e-01  9.16822e-03  3.27589e-04
       O  8.95651e-01  2.07565e-01 -1.34009e-01
       H -1.84366e+00  4.45738e-02 -2.69023e-01
       H -6.71634e-01 -7.80602e-01  5.74202e-01
       L  2.97553e+00 -3.53103e-01  6.63677e-01
       L  8.87955e-02  1.34088e+00 -2.58954e+00
6
# CELL(abcABC):  459.05226   459.05226   459.05226    90.00000    90.00000    90.00000  Step:          36  Bead:       0 x_centroid{angstrom}  cell{atomic_unit}
       C -2.46562e-01  1.40738e-02  1.91750e-03
       O  8.98292e-01  2.05895e-01 -1.34569e-01
       H -1.84095e+00  1.71263e-02 -2.67362e-01
       H -6.46742e-01 -7.85155e-01  5.62241e-01
       L  3.46977e+00 -4.25362e-01  1.20432e+00
       L  2.53976e-01  1.52664e+00 -2.69316e+00
6
# CELL(abcABC):  459.05226   459.05226   459.05226    90.00000    90.00000    90.00000  Step:          37  Bead:       0 x_centroid{angstrom}  cell{atomic_unit}
       C -2.53078e-01  1.80381e-02  3.58884e-03
       O  9.00652e-01  2.04684e-01 -1.35220e-01
       H -1.82937e+00 -3.16999e-03 -2.69835e-01
       H -6.18504e-01 -7.92899e-01  5.54914e-01
       L  3.93014e+00 -5.45130e-01  1.69633e+00
       L  4.48263e-01  1.69216e+00 -2.79022e+00
6
# CELL(abcABC):  459.05226   459.05226   459.05226    90.00000    90.00000    90.00000  Step:          38  Bead:       0 x_centroid{angstrom}  cell{atomic_unit}
       C -2.60321e-01  2.16929e-02  5.38700e-03
       O  9.02865e-01  2.03456e-01 -1.36090e-01
       H -1.80931e+00 -1.70826e-02 -2.74970e-01
       H -5.87733e-01 -8.03077e-01  5.52256e-01
       L  4.38505e+00 -6.50622e-01  2.10602e+00
       L  6.37044e-01  1.85214e+00 -2.87946e+00
6
# CELL(abcABC):  459.05226   459.05226   459.05226    90.00000    90.00000    90.00000  Step:          39  Bead:       0 x_centroid{angstrom}  cell{atomic_unit}
       C -2.67860e-01  2.47069e-02  7.31535e-03
       O  9.04565e-01  2.02534e-01 -1.37213e-01
       H -1.78081e+00 -2.53367e-02 -2.83110e-01
       H -5.53695e-01 -8.16155e-01  5.55069e-01
       L  4.77505e+00 -7.71936e-01  2.49114e+00
       L  8.50463e-01  2.08263e+00 -2.94268e+00
6
# CELL(abcABC):  459.05226   459.05226   459.05226    90.00000    90.00000    90.00000  Step:          40  Bead:       0 x_centroid{angstrom}  cell{atomic_unit}
       C -2.75502e-01  2.68388e-02  8.97399e-03
       O  9.05765e-01  2.02092e-01 -1.38252e-01
       H -1.74381e+00 -2.69134e-02 -2.94029e-01
       H -5.19038e-01 -8.33052e-01  5.62567e-01
       L  5.12461e+00 -8.77671e-01  2.82733e+00
       L  1.14539e+00  2.32632e+00 -2.98874e+00
6
# CELL(abcABC):  459.05226   459.05226   459.05226    90.00000    90.00000    90.00000  Step:          41  Bead:       0 x_centroid{angstrom}  cell{atomic_unit}
       C -2.83173e-01  2.80081e-02  1.08174e-02
       O  9.06403e-01  2.02027e-01 -1.39584e-01
       H -1.69784e+00 -2.10780e-02 -3.07251e-01
       H -4.84042e-01 -8.51797e-01  5.74797e-01
       L  5.41832e+00 -1.01712e+00  3.12085e+00
       L  1.41558e+00  2.48325e+00 -2.99129e+00
6
# CELL(abcABC):  459.05226   459.05226   459.05226    90.00000    90.00000    90.00000  Step:          42  Bead:       0 x_centroid{angstrom}  cell{atomic_unit}
       C -2.90860e-01  2.84943e-02  1.24470e-02
       O  9.06412e-01  2.02346e-01 -1.40988e-01
       H -1.64168e+00 -9.95915e-03 -3.19815e-01
       H -4.49033e-01 -8.73783e-01  5.90070e-01
       L  5.64986e+00 -1.14453e+00  3.34832e+00
       L  1.70920e+00  2.62634e+00 -2.90888e+00
6
# CELL(abcABC):  459.05226   459.05226   459.05226    90.00000    90.00000    90.00000  Step:          43  Bead:       0 x_centroid{angstrom}  cell{atomic_unit}
       C -2.98380e-01  2.79121e-02  1.42308e-02
       O  9.05737e-01  2.03065e-01 -1.42624e-01
       H -1.57595e+00  7.65214e-03 -3.32900e-01
       H -4.14683e-01 -8.95851e-01  6.07734e-01
       L  5.81872e+00 -1.26346e+00  3.51008e+00
       L  2.01090e+00  2.70873e+00 -2.84970e+00
6
# CELL(abcABC):  459.05226   459.05226   459.05226    90.00000    90.00000    90.00000  Step:          44  Bead:       0 x_centroid{angstrom}  cell{atomic_unit}
       C -3.05702e-01  2.62595e-02  1.61772e-02
       O  9.04378e-01  2.04038e-01 -1.44424e-01
       H -1.50078e+00  3.22217e-02 -3.46855e-01
       H -3.81234e-01 -9.16138e-01  6.26959e-01
       L  5.91813e+00 -1.38568e+00  3.65024e+00
       L  2.28236e+00  2.78322e+00 -2.76401e+00
6
# CELL(abcABC):  459.05226   459.05226   459.05226    90.00000    90.00000    90.00000  Step:          45  Bead:       0 x_centroid{angstrom}  cell{atomic_unit}
       C -3.12353e-01  2.34319e-02  1.81057e-02
       O  9.02096e-01  2.05265e-01 -1.46289e-01
       H -1.41769e+00  6.34985e-02 -3.60443e-01
       H -3.49032e-01 -9.33146e-01  6.47078e-01
       L  6.00757e+00 -1.49334e+00  3.72562e+00
       L  2.50635e+00  2.78662e+00 -2.67736e+00
6
# CELL(abcABC):  459.05226   459.05226   459.05226    90.00000    90.00000    90.00000  Step:          46  Bead:       0 x_centroid{angstrom}  cell{atomic_unit}
       C -3.18196e-01  1.93257e-02  2.02231e-02
       O  8.99063e-01  2.06912e-01 -1.48262e-01
       H -1.33001e+00  9.96328e-02 -3.74576e-01
       H -3.19042e-01 -9.46423e-01  6.67219e-01
       L  5.99596e+00 -1.59245e+00  3.80323e+00
       L  2.71755e+00  2.74486e+00 -2.60590e+00
6
# CELL(abcABC):  459.05226   459.05226   459.05226    90.00000    90.00000    90.00000  Step:          47  Bead:       0 x_centroid{angstrom}  cell{atomic_unit}
       C -3.23064e-01  1.36681e-02  2.29752e-02
       O  8.95539e-01  2.09072e-01 -1.50443e-01
       H -1.24183e+00  1.41351e-01 -3.91859e-01
       H -2.93375e-01 -9.54903e-01  6.86229e-01
       L  6.00213e+00 -1.63785e+00  3.87579e+00
       L  2.91184e+00  2.61146e+00 -2.50242e+00
6
# CELL(abcABC):  459.05226   459.05226   459.05226    90.00000    90.00000    90.00000  Step:          48  Bead:       0 x_centroid{angstrom}  cell{atomic_unit}
       C -3.26306e-01  6.83530e-03  2.63000e-02
       O  8.91414e-01  2.11424e-01 -1.52695e-01
       H -1.15929e+00  1.89490e-01 -4.13586e-01
       H -2.71867e-01 -9.58867e-01  7.04031e-01
       L  5.95998e+00 -1.63065e+00  3.86484e+00
       L  3.05917e+00  2.44727e+00 -2.41011e+00
6
# CELL(abcABC):  459.05226   459.05226   459.05226    90.00000    90.00000    90.00000  Step:          49  Bead:       0 x_centroid{angstrom}  cell{atomic_unit}
       C -3.26832e-01 -1.43405e-03  3.04658e-02
       O  8.86402e-01  2.14117e-01 -1.55069e-01
       H -1.08900e+00  2.45533e-01 -4.41824e-01
       H -2.56308e-01 -9.58964e-01  7.20305e-01
       L  5.82891e+00 -1.61898e+00  3.80346e+00
       L  3.13569e+00  2.14633e+00 -2.32497e+00
6
# CELL(abcABC):  459.05226   459.05226   459.05226    90.00000    90.00000    90.00000  Step:          50  Bead:       0 x_centroid{angstrom}  cell{atomic_unit}
       C -3.24461e-01 -1.11996e-02  3.57708e-02
       O  8.80641e-01  2.17064e-01 -1.57569e-01
       H -1.03629e+00  3.10144e-01 -4.80700e-01
       H -2.45736e-01 -9.53835e-01  7.35699e-01
       L  5.63968e+00 -1.55927e+00  3.68578e+00
       L  3.17076e+00  1.80108e+00 -2.27912e+00
6
# CELL(abcABC):  459.05226   459.05226   459.05226    90.00000    90.00000    90.00000  Step:          51  Bead:       0 x_centroid{angstrom}  cell{atomic_unit}
       C -3.19261e-01 -2.22401e-02  4.26357e-02
       O  8.74270e-01  2.20213e-01 -1.60404e-01
       H -9.99531e-01  3.82644e-01 -5.30239e-01
       H -2.43198e-01 -9.44624e-01  7.48489e-01
       L  5.36590e+00 -1.45646e+00  3.55058e+00
       L  3.21048e+00  1.45593e+00 -2.24557e+00
6
# CELL(abcABC):  459.05226   459.05226   459.05226    90.00000    90.00000    90.00000  Step:          52  Bead:       0 x_centroid{angstrom}  cell{atomic_unit}
       C -3.12070e-01 -3.42569e-02  5.02608e-02
       O  8.67618e-01  2.23497e-01 -1.63296e-01
       H -9.74947e-01  4.60060e-01 -5.84906e-01
       H -2.47775e-01 -9.30828e-01  7.58302e-01
       L  5.08415e+00 -1.35148e+00  3.31046e+00
       L  3.29237e+00  1.06049e+00 -2.20809e+00
6
# CELL(abcABC):  459.05226   459.05226   459.05226    90.00000    90.00000    90.00000  Step:          53  Bead:       0 x_centroid{angstrom}  cell{atomic_unit}
       C -3.03630e-01 -4.66813e-02  5.80201e-02
       O  8.60757e-01  2.26906e-01 -1.66175e-01
       H -9.55174e-01  5.37325e-01 -6.39655e-01
       H -2.59024e-01 -9.13975e-01  7.66397e-01
       L  4.74080e+00 -1.24441e+00  3.05786e+00
       L  3.29267e+00  6.17329e-01 -2.14153e+00
6
# CELL(abcABC):  459.05226   459.05226   459.05226    90.00000    90.00000    90.00000  Step:          54  Bead:       0 x_centroid{angstrom}  cell{atomic_unit}
       C -2.94446e-01 -5.92078e-02  6.57700e-02
       O  8.53890e-01  2.30617e-01 -1.69370e-01
       H -9.38124e-01  6.10009e-01 -6.88453e-01
       H -2.76293e-01 -8.96136e-01  7.73641e-01
       L  4.34078e+00 -1.10501e+00  2.82084e+00
       L  3.28018e+00  1.82686e-01 -2.04382e+00
6
# CELL(abcABC):  459.05226   459.05226   459.05226    90.00000    90.00000    90.00000  Step:          55  Bead:       0 x_centroid{angstrom}  cell{atomic_unit}
       C -2.84550e-01 -7.10057e-02  7.26766e-02
       O  8.46933e-01  2.34159e-01 -1.72443e-01
       H -9.22266e-01  6.76471e-01 -7.29464e-01
       H -2.99353e-01 -8.78077e-01  7.81249e-01
       L  3.88934e+00 -9.52878e-01  2.51934e+00
       L  3.22232e+00 -2.33811e-01 -1.97767e+00
6
# CELL(abcABC):  459.05226   459.05226   459.05226    90.00000    90.00000    90.00000  Step:          56  Bead:       0 x_centroid{angstrom}  cell{atomic_unit}
       C -2.74328e-01 -8.17438e-02  7.90102e-02
       O  8.40137e-01  2.37586e-01 -1.75752e-01
       H -9.07819e-01  7.33440e-01 -7.61521e-01
       H -3.27423e-01 -8.61300e-01  7.90481e-01
       L  3.36730e+00 -8.63538e-01  2.18906e+00
       L  3.15296e+00 -6.88679e-01 -1.85798e+00
6
# CELL(abcABC):  459.05226   459.05226   459.05226    90.00000    90.00000    90.00000  Step:          57  Bead:       0 x_centroid{angstrom}  cell{atomic_unit}
       C -2.64049e-01 -9.14384e-02  8.43956e-02
       O  8.33548e-01  2.40927e-01 -1.79012e-01
       H -8.93514e-01  7.81388e-01 -7.84253e-01
       H -3.59246e-01 -8.46578e-01  8.00893e-01
       L  2.81647e+00 -7.52138e-01  1.85283e+00
       L  3.03018e+00 -1.13791e+00 -1.72142e+00
6
# CELL(abcABC):  459.05226   459.05226   459.05226    90.00000    90.00000    90.00000  Step:          58  Bead:       0 x_centroid{angstrom}  cell{atomic_unit}
       C -2.53701e-01 -9.98256e-02  8.85068e-02
       O  8.27382e-01  2.43905e-01 -1.81882e-01
       H -8.81877e-01  8.22640e-01 -7.99968e-01
       H -3.95875e-01 -8.34989e-01  8.13318e-01
       L  2.22231e+00 -5.97978e-01  1.46590e+00
       L  2.80681e+00 -1.58103e+00 -1.59649e+00
6
# CELL(abcABC):  459.05226   459.05226   459.05226    90.00000    90.00000    90.00000  Step:          59  Bead:       0 x_centroid{angstrom}  cell{atomic_unit}
       C -2.43732e-01 -1.07096e-01  9.17532e-02
       O  8.21827e-01  2.46865e-01 -1.84689e-01
       H -8.71492e-01  8.52927e-01 -8.08206e-01
       H -4.36392e-01 -8.25504e-01  8.27557e-01
       L  1.61680e+00 -3.86015e-01  1.09527e+00
       L  2.52265e+00 -2.02014e+00 -1.45712e+00
6
# CELL(abcABC):  459.05226   459.05226   459.05226    90.00000    90.00000    90.00000  Step:          60  Bead:       0 x_centroid{angstrom}  cell{atomic_unit}
       C -2.34116e-01 -1.12969e-01  9.41790e-02
       O  8.16985e-01  2.49674e-01 -1.87458e-01
       H -8.63985e-01  8.72819e-01 -8.09313e-01
       H -4.81095e-01 -8.19839e-01  8.43844e-01
       L  9.54604e-01 -1.95528e-01  7.23458e-01
       L  2.22384e+00 -2.51173e+00 -1.34718e+00
6
# CELL(abcABC):  459.05226   459.05226   459.05226    90.00000    90.00000    90.00000  Step:          61  Bead:       0 x_centroid{angstrom}  cell{atomic_unit}
       C -2.25039e-01 -1.17739e-01  9.57607e-02
       O  8.12962e-01  2.52302e-01 -1.90122e-01
       H -8.60172e-01  8.83786e-01 -8.02524e-01
       H -5.28644e-01 -8.15514e-01  8.60612e-01
       L  2.27874e-01 -2.32129e-02  4.10779e-01
       L  1.90877e+00 -2.99590e+00 -1.24042e+00
6
# CELL(abcABC):  459.05226   459.05226   459.05226    90.00000    90.00000    90.00000  Step:          62  Bead:       0 x_centroid{angstrom}  cell{atomic_unit}
       C -2.16738e-01 -1.21593e-01  9.64832e-02
       O  8.09866e-01  2.54801e-01 -1.92520e-01
       H -8.59903e-01  8.86395e-01 -7.88863e-01
       H -5.78101e-01 -8.11742e-01  8.76518e-01
       L -5.00816e-01  1.96630e-01  8.58277e-02
       L  1.55376e+00 -3.46846e+00 -1.11878e+00
6
# CELL(abcABC):  459.05226   459.05226   459.05226    90.00000    90.00000    90.00000  Step:          63  Bead:       0 x_centroid{angstrom}  cell{atomic_unit}
       C -2.09948e-01 -1.24436e-01  9.64405e-02
       O  8.08134e-01  2.57048e-01 -1.94729e-01
       H -8.64148e-01  8.80121e-01 -7.68132e-01
       H -6.26679e-01 -8.07165e-01  8.91440e-01
       L -1.20489e+00  4.19183e-01 -2.23712e-01
       L  1.16694e+00 -3.84374e+00 -9.42719e-01
6
# CELL(abcABC):  459.05226   459.05226   459.05226    90.00000    90.00000    90.00000  Step:          64  Bead:       0 x_centroid{angstrom}  cell{atomic_unit}
       C -2.04845e-01 -1.26280e-01  9.57505e-02
       O  8.07786e-01  2.59003e-01 -1.96805e-01
       H -8.72112e-01  8.65861e-01 -7.39830e-01
       H -6.73395e-01 -8.01900e-01  9.04375e-01
       L -1.91991e+00  6.88128e-01 -5.38798e-01
       L  7.59561e-01 -4.21602e+00 -7.45624e-01
6
# CELL(abcABC):  459.05226   459.05226   459.05226    90.00000    90.00000    90.00000  Step:          65  Bead:       0 x_centroid{angstrom}  cell{atomic_unit}
       C -2.01582e-01 -1.27135e-01  9.46000e-02
       O  8.08771e-01  2.60599e-01 -1.98792e-01
       H -8.82812e-01  8.43899e-01 -7.05520e-01
       H -7.16610e-01 -7.95018e-01  9.15384e-01
       L -2.62247e+00  9.25260e-01 -8.76543e-01
       L  3.80183e-01 -4.57210e+00 -5.44580e-01
6
# CELL(abcABC):  459.05226   459.05226   459.05226    90.00000    90.00000    90.00000  Step:          66  Bead:       0 x_centroid{angstrom}  cell{atomic_unit}
       C -2.00265e-01 -1.27224e-01  9.33187e-02