6
# CELL(abcABC):  459.05226   459.05226   459.05226    90.00000    90.00000    90.00000  Step:           0  Bead:       0 x_centroid{angstrom}  cell{atomic_unit}
       C -3.39887e-01 -1.13437e-01  8.06659e-02
       O  8.43483e-01  2.62672e-01 -1.81512e-01
       H -7.35799e-02  8.16467e-01 -6.61432e-01
       H -4.30016e-01 -9.65701e-01  7.62278e-01
       L  0.00000e+00  0.00000e+00  0.00000e+00
       L  0.00000e+00  0.00000e+00  0.00000e+00
6
# CELL(abcABC):  459.05226   459.05226   459.05226    90.00000    90.00000    90.00000  Step:           1  Bead:       0 x_centroid{angstrom}  cell{atomic_unit}
       C -3.40000e-01 -1.11576e-01  7.84857e-02
       O  8.43517e-01  2.61671e-01 -1.79116e-01
       H -7.49908e-02  8.12030e-01 -6.61511e-01
       H -4.27723e-01 -9.67747e-01  7.50689e-01
       L  1.42006e-01 -2.53715e-02 -8.48895e-02
       L -2.75399e-01  3.82385e-01 -6.45379e-01
6
# CELL(abcABC):  459.05226   459.05226   459.05226    90.00000    90.00000    90.00000  Step:           2  Bead:       0 x_centroid{angstrom}  cell{atomic_unit}
       C -3.40142e-01 -1.09646e-01  7.66780e-02
       O  8.43649e-01  2.60617e-01 -1.77045e-01
       H -7.64783e-02  8.08310e-01 -6.62483e-01
       H -4.26570e-01 -9.70502e-01  7.40742e-01
       L  2.40416e-01 -6.41018e-02 -2.05328e-01
       L -5.16295e-01  7.89906e-01 -1.28720e+00
6
# CELL(abcABC):  459.05226   459.05226   459.05226    90.00000    90.00000    90.00000  Step:           3  Bead:       0 x_centroid{angstrom}  cell{atomic_unit}
       C -3.40039e-01 -1.08178e-01  7.48219e-02
       O  8.43723e-01  2.59810e-01 -1.74907e-01
       H -8.01427e-02  8.05210e-01 -6.63961e-01
       H -4.25213e-01 -9.72254e-01  7.30796e-01
       L  3.50020e-01 -1.40089e-01 -3.03486e-01
       L -7.82516e-01  1.18353e+00 -1.91044e+00
6
# CELL(abcABC):  459.05226   459.05226   459.05226    90.00000    90.00000    90.00000  Step:           4  Bead:       0 x_centroid{angstrom}  cell{atomic_unit}
       C -3.39818e-01 -1.06505e-01  7.28573e-02
       O  8.43882e-01  2.58846e-01 -1.72661e-01
       H -8.49697e-02  8.02697e-01 -6.65329e-01
       H -4.25434e-01 -9.74521e-01  7.20313e-01
       L  4.26956e-01 -2.08209e-01 -4.05382e-01
       L -1.05129e+00  1.52361e+00 -2.53442e+00
6
# CELL(abcABC):  459.05226   459.05226   459.05226    90.00000    90.00000    90.00000  Step:           5  Bead:       0 x_centroid{angstrom}  cell{atomic_unit}
       C -3.39779e-01 -1.04766e-01  7.10699e-02
       O  8.44416e-01  2.57827e-01 -1.70485e-01
       H -9.27108e-02  7.99508e-01 -6.67257e-01
       H -4.26552e-01 -9.76019e-01  7.09382e-01
       L  4.91429e-01 -2.35664e-01 -5.26631e-01
       L -1.27872e+00  1.77912e+00 -3.09690e+00
6
# CELL(abcABC):  459.05226   459.05226   459.05226    90.00000    90.00000    90.00000  Step:           6  Bead:       0 x_centroid{angstrom}  cell{atomic_unit}
       C -3.39484e-01 -1.02800e-01  6.93227e-02
       O  8.45078e-01  2.56808e-01 -1.68294e-01
       H -1.04916e-01  7.96246e-01 -6.69650e-01
       H -4.28310e-01 -9.80086e-01  6.98177e-01
       L  5.72665e-01 -2.82642e-01 -6.53347e-01
       L -1.47318e+00  1.99358e+00 -3.63085e+00
6
# CELL(abcABC):  459.05226   459.05226   459.05226    90.00000    90.00000    90.00000  Step:           7  Bead:       0 x_centroid{angstrom}  cell{atomic_unit}
       C -3.38881e-01 -1.00790e-01  6.71539e-02
       O  8.45814e-01  2.55727e-01 -1.65756e-01
       H -1.20614e-01  7.93726e-01 -6.73278e-01
       H -4.31424e-01 -9.84500e-01  6.87717e-01
       L  6.82621e-01 -2.48724e-01 -8.04105e-01
       L -1.67331e+00  2.20264e+00 -4.14386e+00
6
# CELL(abcABC):  459.05226   459.05226   459.05226    90.00000    90.00000    90.00000  Step:           8  Bead:       0 x_centroid{angstrom}  cell{atomic_unit}
       C -3.38500e-01 -9.86373e-02  6.45355e-02
       O  8.47107e-01  2.54630e-01 -1.62862e-01
       H -1.41212e-01  7.91204e-01 -6.78003e-01
       H -4.35827e-01 -9.90342e-01  6.78046e-01
       L  7.77761e-01 -2.22392e-01 -9.78825e-01
       L -1.88987e+00  2.40684e+00 -4.60555e+00
6
# CELL(abcABC):  459.05226   459.05226   459.05226    90.00000    90.00000    90.00000  Step:           9  Bead:       0 x_centroid{angstrom}  cell{atomic_unit}
       C -3.37779e-01 -9.60477e-02  6.17934e-02
       O  8.48514e-01  2.53260e-01 -1.59804e-01
       H -1.67790e-01  7.88511e-01 -6.83528e-01
       H -4.40127e-01 -9.96879e-01  6.67976e-01
       L  8.46056e-01 -2.09500e-01 -1.14817e+00
       L -2.06702e+00  2.62895e+00 -4.93144e+00
6
# CELL(abcABC):  459.05226   459.05226   459.05226    90.00000    90.00000    90.00000  Step:          10  Bead:       0 x_centroid{angstrom}  cell{atomic_unit}
       C -3.36918e-01 -9.32993e-02  5.87164e-02
       O  8.50380e-01  2.51756e-01 -1.56525e-01
       H -2.01662e-01  7.84656e-01 -6.89881e-01
       H -4.46060e-01 -1.00201e+00  6.59192e-01
       L  8.90085e-01 -2.14918e-01 -1.25966e+00
       L -2.23534e+00  2.82516e+00 -5.25097e+00
6
# CELL(abcABC):  459.05226   459.05226   459.05226    90.00000    90.00000    90.00000  Step:          11  Bead:       0 x_centroid{angstrom}  cell{atomic_unit}
       C -3.35473e-01 -9.05393e-02  5.52905e-02
       O  8.52572e-01  2.50304e-01 -1.52996e-01
       H -2.45126e-01  7.79286e-01 -6.96013e-01
       H -4.54488e-01 -1.00656e+00  6.50296e-01
       L  8.75678e-01 -2.51589e-01 -1.33011e+00
       L -2.43666e+00  2.99519e+00 -5.49860e+00
6
# CELL(abcABC):  459.05226   459.05226   459.05226    90.00000    90.00000    90.00000  Step:          12  Bead:       0 x_centroid{angstrom}  cell{atomic_unit}
       C -3.32823e-01 -8.72928e-02  5.14159e-02
       O  8.54817e-01  2.48527e-01 -1.49147e-01
       H -3.01300e-01  7.72261e-01 -7.01077e-01
       H -4.65402e-01 -1.01007e+00  6.40614e-01
       L  8.66613e-01 -2.64876e-01 -1.41031e+00
       L -2.65156e+00  3.12700e+00 -5.74724e+00
6
# CELL(abcABC):  459.05226   459.05226   459.05226    90.00000    90.00000    90.00000  Step:          13  Bead:       0 x_centroid{angstrom}  cell{atomic_unit}
       C -3.29188e-01 -8.36104e-02  4.71080e-02
       O  8.57175e-01  2.46507e-01 -1.44957e-01
       H -3.69239e-01  7.63642e-01 -7.04772e-01
       H -4.78083e-01 -1.01332e+00  6.29295e-01
       L  8.63731e-01 -2.74198e-01 -1.50438e+00
       L -2.89284e+00  3.23473e+00 -5.94616e+00
6
# CELL(abcABC):  459.05226   459.05226   459.05226    90.00000    90.00000    90.00000  Step:          14  Bead:       0 x_centroid{angstrom}  cell{atomic_unit}
       C -3.24490e-01 -7.94824e-02  4.23640e-02
       O  8.59615e-01  2.44108e-01 -1.40406e-01
       H -4.49321e-01  7.52841e-01 -7.08484e-01
       H -4.92569e-01 -1.01365e+00  6.17430e-01
       L  8.51380e-01 -3.17641e-01 -1.60752e+00
       L -3.14342e+00  3.30771e+00 -6.08463e+00
6
# CELL(abcABC):  459.05226   459.05226   459.05226    90.00000    90.00000    90.00000  Step:          15  Bead:       0 x_centroid{angstrom}  cell{atomic_unit}
       C -3.18577e-01 -7.44533e-02  3.70244e-02
       O  8.62203e-01  2.41113e-01 -1.35400e-01
       H -5.43538e-01  7.38237e-01 -7.10282e-01
       H -5.09736e-01 -1.01143e+00  6.03466e-01
       L  8.21319e-01 -3.92522e-01 -1.69869e+00
       L -3.39187e+00  3.38448e+00 -6.12651e+00
6
# CELL(abcABC):  459.05226   459.05226   459.05226    90.00000    90.00000    90.00000  Step:          16  Bead:       0 x_centroid{angstrom}  cell{atomic_unit}
       C -3.11746e-01 -6.90599e-02  3.11805e-02
       O  8.64941e-01  2.37885e-01 -1.30113e-01
       H -6.48101e-01  7.20045e-01 -7.10373e-01
       H -5.29894e-01 -1.00629e+00  5.89276e-01
       L  7.69967e-01 -4.13891e-01 -1.79721e+00
       L -3.59756e+00  3.44692e+00 -6.05331e+00
6
# CELL(abcABC):  459.05226   459.05226   459.05226    90.00000    90.00000    90.00000  Step:          17  Bead:       0 x_centroid{angstrom}  cell{atomic_unit}
       C -3.03727e-01 -6.31015e-02  2.44547e-02
       O  8.67312e-01  2.34374e-01 -1.24215e-01
       H -7.59400e-01  6.96508e-01 -7.07599e-01
       H -5.51662e-01 -9.97979e-01  5.73017e-01
       L  6.78854e-01 -4.32608e-01 -1.89375e+00
       L -3.72209e+00  3.40179e+00 -5.93115e+00
6
# CELL(abcABC):  459.05226   459.05226   459.05226    90.00000    90.00000    90.00000  Step:          18  Bead:       0 x_centroid{angstrom}  cell{atomic_unit}
       C -2.95106e-01 -5.68239e-02  1.71789e-02
       O  8.69672e-01  2.30783e-01 -1.18198e-01
       H -8.75607e-01  6.67355e-01 -7.00264e-01
       H -5.75545e-01 -9.86589e-01  5.56829e-01
       L  5.50792e-01 -4.15401e-01 -1.97079e+00
       L -3.78426e+00  3.29618e+00 -5.76411e+00
6
# CELL(abcABC):  459.05226   459.05226   459.05226    90.00000    90.00000    90.00000  Step:          19  Bead:       0 x_centroid{angstrom}  cell{atomic_unit}
       C -2.86238e-01 -4.99749e-02  9.39309e-03
       O  8.72038e-01  2.26994e-01 -1.12098e-01
       H -9.93865e-01  6.32017e-01 -6.87678e-01
       H -6.00485e-01 -9.72661e-01  5.40122e-01
       L  4.97221e-01 -3.61974e-01 -2.00589e+00
       L -3.80477e+00  3.12782e+00 -5.59938e+00
6
# CELL(abcABC):  459.05226   459.05226   459.05226    90.00000    90.00000    90.00000  Step:          20  Bead:       0 x_centroid{angstrom}  cell{atomic_unit}
       C -2.77419e-01 -4.29365e-02  1.27678e-03
       O  8.74414e-01  2.23336e-01 -1.06104e-01
       H -1.11061e+00  5.91371e-01 -6.68933e-01
       H -6.26534e-01 -9.57746e-01  5.22853e-01
       L  4.41087e-01 -2.96982e-01 -1.99642e+00
       L -3.76162e+00  2.93916e+00 -5.43779e+00
6
# CELL(abcABC):  459.05226   459.05226   459.05226    90.00000    90.00000    90.00000  Step:          21  Bead:       0 x_centroid{angstrom}  cell{atomic_unit}
       C -2.68707e-01 -3.57571e-02 -7.27383e-03
       O  8.76462e-01  2.19681e-01 -1.00191e-01
       H -1.22162e+00  5.47274e-01 -6.43807e-01
       H -6.51864e-01 -9.41100e-01  5.05657e-01
       L  4.09936e-01 -2.19610e-01 -2.04462e+00
       L -3.67397e+00  2.70448e+00 -5.21489e+00
6
# CELL(abcABC):  459.05226   459.05226   459.05226    90.00000    90.00000    90.00000  Step:          22  Bead:       0 x_centroid{angstrom}  cell{atomic_unit}
       C -2.60623e-01 -2.85084e-02 -1.64677e-02
       O  8.78469e-01  2.16023e-01 -9.42291e-02
       H -1.32422e+00  5.00141e-01 -6.13252e-01
       H -6.77475e-01 -9.22163e-01  4.89869e-01
       L  3.63669e-01 -1.81644e-01 -2.03421e+00
       L -3.59251e+00  2.44841e+00 -4.94295e+00
6
# CELL(abcABC):  459.05226   459.05226   459.05226    90.00000    90.00000    90.00000  Step:          23  Bead:       0 x_centroid{angstrom}  cell{atomic_unit}
       C -2.53540e-01 -2.15060e-02 -2.58088e-02
       O  8.80569e-01  2.12660e-01 -8.83428e-02
       H -1.41726e+00  4.51168e-01 -5.80467e-01
       H -7.02224e-01 -9.03118e-01  4.74760e-01
       L  3.33762e-01 -1.41646e-01 -2.01478e+00
       L -3.44850e+00  2.16917e+00 -4.60315e+00
6
# CELL(abcABC):  459.05226   459.05226   459.05226    90.00000    90.00000    90.00000  Step:          24  Bead:       0 x_centroid{angstrom}  cell{atomic_unit}
       C -2.47696e-01 -1.50234e-02 -3.57667e-02
       O  8.82687e-01  2.09707e-01 -8.23704e-02
       H -1.49980e+00  4.01307e-01 -5.44125e-01
       H -7.23003e-01 -8.83477e-01  4.62038e-01
       L  2.61995e-01 -1.03768e-01 -1.94877e+00
       L -3.27560e+00  1.87343e+00 -4.23228e+00
6
# CELL(abcABC):  459.05226   459.05226   459.05226    90.00000    90.00000    90.00000  Step:          25  Bead:       0 x_centroid{angstrom}  cell{atomic_unit}
       C -2.43212e-01 -8.77096e-03 -4.58638e-02
       O  8.84985e-01  2.06885e-01 -7.64961e-02
       H -1.57155e+00  3.52112e-01 -5.06832e-01
       H -7.41260e-01 -8.63882e-01  4.51550e-01
       L  2.19635e-01 -3.84502e-02 -1.85736e+00
       L -3.06217e+00  1.60302e+00 -3.83061e+00
6
# CELL(abcABC):  459.05226   459.05226   459.05226    90.00000    90.00000    90.00000  Step:          26  Bead:       0 x_centroid{angstrom}  cell{atomic_unit}
       C -2.40592e-01 -2.90203e-03 -5.57754e-02
       O  8.87627e-01  2.04132e-01 -7.08957e-02
       H -1.63144e+00  3.06392e-01 -4.68890e-01
       H -7.54629e-01 -8.44292e-01  4.42544e-01
       L  2.01083e-01  1.65422e-02 -1.77201e+00
       L -2.84841e+00  1.34442e+00 -3.41393e+00
6
# CELL(abcABC):  459.05226   459.05226   459.05226    90.00000    90.00000    90.00000  Step:          27  Bead:       0 x_centroid{angstrom}  cell{atomic_unit}
       C -2.39665e-01  2.01337e-03 -6.54201e-02
       O  8.90612e-01  2.02020e-01 -6.55689e-02
       H -1.68039e+00  2.63228e-01 -4.32566e-01
       H -7.64225e-01 -8.26061e-01  4.36304e-01
       L  1.84998e-01  7.66951e-02 -1.64643e+00
       L -2.59727e+00  1.06512e+00 -3.00635e+00
6
# CELL(abcABC):  459.05226   459.05226   459.05226    90.00000    90.00000    90.00000  Step:          28  Bead:       0 x_centroid{angstrom}  cell{atomic_unit}
       C -2.40198e-01  6.00998e-03 -7.49378e-02
       O  8.93773e-01  2.00365e-01 -6.02490e-02
       H -1.71826e+00  2.25202e-01 -3.99787e-01
       H -7.70331e-01 -8.09289e-01  4.32211e-01
       L  1.84184e-01  1.22311e-01 -1.49572e+00
       L -2.34611e+00  8.38413e-01 -2.63828e+00
6
# CELL(abcABC):  459.05226   459.05226   459.05226    90.00000    90.00000    90.00000  Step:          29  Bead:       0 x_centroid{angstrom}  cell{atomic_unit}
       C -2.42172e-01  9.23930e-03 -8.40282e-02
       O  8.96982e-01  1.98982e-01 -5.52098e-02
       H -1.74514e+00  1.93792e-01 -3.69599e-01
       H -7.71055e-01 -7.94284e-01  4.30054e-01
       L  2.01386e-01  1.27167e-01 -1.26641e+00
       L -2.00336e+00  5.98200e-01 -2.31175e+00
6
# CELL(abcABC):  459.05226   459.05226   459.05226    90.00000    90.00000    90.00000  Step:          30  Bead:       0 x_centroid{angstrom}  cell{atomic_unit}
       C -2.45367e-01  1.12728e-02 -9.25353e-02
       O  9.00139e-01  1.98172e-01 -5.03896e-02
       H -1.76312e+00  1.69611e-01 -3.43584e-01
       H -7.65353e-01 -7.81361e-01  4.28570e-01
       L  2.60872e-01  1.73819e-01 -1.04025e+00
       L -1.61019e+00  3.46508e-01 -1.93838e+00
6
# CELL(abcABC):  459.05226   459.05226   459.05226    90.00000    90.00000    90.00000  Step:          31  Bead:       0 x_centroid{angstrom}  cell{atomic_unit}
       C -2.49921e-01  1.27133e-02 -1.00792e-01
       O  9.03398e-01  1.97686e-01 -4.56044e-02
       H -1.77241e+00  1.51434e-01 -3.21157e-01
       H -7.53792e-01 -7.72560e-01  4.28246e-01
       L  3.37287e-01  2.24421e-01 -8.19107e-01
       L -1.22369e+00  1.63775e-01 -1.55007e+00
6
# CELL(abcABC):  459.05226   459.05226   459.05226    90.00000    90.00000    90.00000  Step:          32  Bead:       0 x_centroid{angstrom}  cell{atomic_unit}
       C -2.55682e-01  1.34259e-02 -1.08305e-01
       O  9.06583e-01  1.97559e-01 -4.12476e-02
       H -1.77157e+00  1.39944e-01 -3.03688e-01
       H -7.36777e-01 -7.67476e-01  4.30803e-01
       L  4.07159e-01  2.78241e-01 -5.84805e-01
       L -8.75998e-01 -7.72747e-03 -1.16285e+00
6
# CELL(abcABC):  459.05226   459.05226   459.05226    90.00000    90.00000    90.00000  Step:          33  Bead:       0 x_centroid{angstrom}  cell{atomic_unit}
       C -2.62239e-01  1.37687e-02 -1.15422e-01
       O  9.09444e-01  1.97589e-01 -3.70318e-02
       H -1.76088e+00  1.35675e-01 -2.91500e-01
       H -7.14952e-01 -7.67713e-01  4.36138e-01
       L  4.54324e-01  3.16820e-01 -3.59886e-01
       L -5.26917e-01 -1.62825e-01 -7.08701e-01
6
# CELL(abcABC):  459.05226   459.05226   459.05226    90.00000    90.00000    90.00000  Step:          34  Bead:       0 x_centroid{angstrom}  cell{atomic_unit}
       C -2.69430e-01  1.36067e-02 -1.21818e-01
       O  9.11859e-01  1.97814e-01 -3.31967e-02
       H -1.73997e+00  1.39143e-01 -2.84644e-01
       H -6.88728e-01 -7.72726e-01  4.44253e-01
       L  4.75231e-01  2.79616e-01 -1.31791e-01
       L -1.60511e-01 -3.10288e-01 -2.59257e-01
6
# CELL(abcABC):  459.05226   459.05226   459.05226    90.00000    90.00000    90.00000  Step:          35  Bead:       0 x_centroid{angstrom}  cell{atomic_unit}
       C -2.76920e-01  1.30370e-02 -1.27548e-01
       O  9.13766e-01  1.98262e-01 -2.96967e-02
       H -1.71039e+00  1.48997e-01 -2.82452e-01
       H -6.59483e-01 -7.82764e-01  4.54382e-01
       L  4.59513e-01  2.30137e-01  1.47252e-01
       L  1.54196e-01 -5.07949e-01  2.01209e-01
6
# CELL(abcABC):  459.05226   459.05226   459.05226    90.00000    90.00000    90.00000  Step:          36  Bead:       0 x_centroid{angstrom}  cell{atomic_unit}
       C -2.85116e-01  1.19161e-02 -1.32537e-01
       O  9.15416e-01  1.99032e-01 -2.66148e-02
       H -1.67150e+00  1.65259e-01 -2.85314e-01
       H -6.27046e-01 -7.97744e-01  4.67362e-01
       L  4.01554e-01  1.59772e-01  4.45553e-01
       L  4.88397e-01 -7.04192e-01  6.52127e-01
6
# CELL(abcABC):  459.05226   459.05226   459.05226    90.00000    90.00000    90.00000  Step:          37  Bead:       0 x_centroid{angstrom}  cell{atomic_unit}
       C -2.93618e-01  1.00057e-02 -1.36751e-01
       O  9.16574e-01  2.00122e-01 -2.40102e-02
       H -1.62253e+00  1.88912e-01 -2.91821e-01
       H -5.93332e-01 -8.15762e-01  4.82334e-01
       L  3.86080e-01  9.17350e-02  7.92250e-01
       L  9.36138e-01 -9.37071e-01  1.04867e+00
6
# CELL(abcABC):  459.05226   459.05226   459.05226    90.00000    90.00000    90.00000  Step:          38  Bead:       0 x_centroid{angstrom}  cell{atomic_unit}
       C -3.02201e-01  7.70094e-03 -1.40263e-01
       O  9.17116e-01  2.01493e-01 -2.16843e-02
       H -1.56500e+00  2.16654e-01 -3.03064e-01
       H -5.57434e-01 -8.37604e-01  4.98118e-01
       L  3.68861e-01 -2.31518e-02  1.14520e+00
       L  1.41495e+00 -1.19606e+00  1.40336e+00
6
# CELL(abcABC):  459.05226   459.05226   459.05226    90.00000    90.00000    90.00000  Step:          39  Bead:       0 x_centroid{angstrom}  cell{atomic_unit}
       C -3.10974e-01  4.67527e-03 -1.42360e-01
       O  9.17163e-01  2.03265e-01 -2.01476e-02
       H -1.49662e+00  2.49175e-01 -3.17286e-01
       H -5.22222e-01 -8.61954e-01  5.12568e-01
       L  3.48486e-01 -2.05083e-01  1.48537e+00
       L  1.81590e+00 -1.47489e+00  1.74223e+00
6
# CELL(abcABC):  459.05226   459.05226   459.05226    90.00000    90.00000    90.00000  Step:          40  Bead:       0 x_centroid{angstrom}  cell{atomic_unit}
       C -3.19334e-01  7.83403e-04 -1.43274e-01
       O  9.16412e-01  2.05373e-01 -1.91014e-02
       H -1.41961e+00  2.88104e-01 -3.37016e-01
       H -4.87898e-01 -8.87729e-01  5.26259e-01
       L  3.09015e-01 -4.20953e-01  1.78574e+00
       L  2.22514e+00 -1.69099e+00  2.04171e+00
6
# CELL(abcABC):  459.05226   459.05226   459.05226    90.00000    90.00000    90.00000  Step:          41  Bead:       0 x_centroid{angstrom}  cell{atomic_unit}
       C -3.26880e-01 -3.66019e-03 -1.43278e-01
       O  9.14709e-01  2.07507e-01 -1.83318e-02
       H -1.33606e+00  3.31557e-01 -3.59975e-01
       H -4.54688e-01 -9.11858e-01  5.36731e-01
       L  2.73825e-01 -6.12417e-01  2.06949e+00
       L  2.61694e+00 -1.96860e+00  2.34588e+00
6
# CELL(abcABC):  459.05226   459.05226   459.05226    90.00000    90.00000    90.00000  Step:          42  Bead:       0 x_centroid{angstrom}  cell{atomic_unit}
       C -3.33213e-01 -8.77897e-03 -1.42122e-01
       O  9.12047e-01  2.09745e-01 -1.79050e-02
       H -1.24952e+00  3.80164e-01 -3.87296e-01
       H -4.23683e-01 -9.34739e-01  5.43246e-01
       L  1.87500e-01 -8.22030e-01  2.29195e+00
       L  3.01832e+00 -2.20756e+00  2.57994e+00
6
# CELL(abcABC):  459.05226   459.05226   459.05226    90.00000    90.00000    90.00000  Step:          43  Bead:       0 x_centroid{angstrom}  cell{atomic_unit}
       C -3.37849e-01 -1.46512e-02 -1.39645e-01
       O  9.08589e-01  2.12148e-01 -1.80121e-02
       H -1.16600e+00  4.34514e-01 -4.17203e-01
       H -3.97242e-01 -9.57044e-01  5.45089e-01
       L  7.70022e-02 -1.04732e+00  2.55615e+00
       L  3.42591e+00 -2.38167e+00  2.78725e+00
6
# CELL(abcABC):  459.05226   459.05226   459.05226    90.00000    90.00000    90.00000  Step:          44  Bead:       0 x_centroid{angstrom}  cell{atomic_unit}
       C -3.40019e-01 -2.19177e-02 -1.35924e-01
       O  9.04194e-01  2.14834e-01 -1.85774e-02
       H -1.09236e+00  4.98037e-01 -4.49946e-01
       H -3.75380e-01 -9.76463e-01  5.42247e-01
       L -1.95986e-02 -1.18923e+00  2.79697e+00
       L  3.77373e+00 -2.52209e+00  2.94545e+00
6
# CELL(abcABC):  459.05226   459.05226   459.05226    90.00000    90.00000    90.00000  Step:          45  Bead:       0 x_centroid{angstrom}  cell{atomic_unit}
       C -3.39752e-01 -3.02345e-02 -1.30753e-01
       O  8.99021e-01  2.17632e-01 -1.95305e-02
       H -1.02967e+00  5.68717e-01 -4.87747e-01
       H -3.59249e-01 -9.92326e-01  5.33372e-01
       L -1.20610e-01 -1.33271e+00  3.00523e+00
       L  4.07837e+00 -2.60390e+00  3.06939e+00
6
# CELL(abcABC):  459.05226   459.05226   459.05226    90.00000    90.00000    90.00000  Step:          46  Bead:       0 x_centroid{angstrom}  cell{atomic_unit}
       C -3.37244e-01 -3.97003e-02 -1.24333e-01
       O  8.93028e-01  2.20524e-01 -2.08899e-02
       H -9.75166e-01  6.46500e-01 -5.29858e-01
       H -3.48657e-01 -1.00314e+00  5.20403e-01
       L -1.53682e-01 -1.45256e+00  3.19820e+00
       L  4.37095e+00 -2.62818e+00  3.17794e+00
6
# CELL(abcABC):  459.05226   459.05226   459.05226    90.00000    90.00000    90.00000  Step:          47  Bead:       0 x_centroid{angstrom}  cell{atomic_unit}
       C -3.32892e-01 -4.97273e-02 -1.16973e-01
       O  8.86359e-01  2.23549e-01 -2.25559e-02
       H -9.24663e-01  7.26711e-01 -5.73144e-01
       H -3.45274e-01 -1.01179e+00  5.02264e-01
       L -1.99370e-01 -1.56721e+00  3.37287e+00
       L  4.61867e+00 -2.70534e+00  3.29583e+00
6
# CELL(abcABC):  459.05226   459.05226   459.05226    90.00000    90.00000    90.00000  Step:          48  Bead:       0 x_centroid{angstrom}  cell{atomic_unit}
       C -3.26909e-01 -6.00745e-02 -1.08963e-01
       O  8.79069e-01  2.26770e-01 -2.45046e-02
       H -8.77113e-01  8.04748e-01 -6.15985e-01
       H -3.48518e-01 -1.01756e+00  4.80438e-01
       L -1.99795e-01 -1.67221e+00  3.57817e+00
       L  4.82081e+00 -2.76977e+00  3.38090e+00
6
# CELL(abcABC):  459.05226   459.05226   459.05226    90.00000    90.00000    90.00000  Step:          49  Bead:       0 x_centroid{angstrom}  cell{atomic_unit}
       C -3.19515e-01 -7.00319e-02 -1.00513e-01
       O  8.71199e-01  2.30017e-01 -2.67565e-02
       H -8.30725e-01  8.75917e-01 -6.55920e-01
       H -3.58160e-01 -1.02157e+00  4.55291e-01
       L -2.35130e-01 -1.73286e+00  3.75971e+00
       L  4.98476e+00 -2.79859e+00  3.44646e+00
6
# CELL(abcABC):  459.05226   459.05226   459.05226    90.00000    90.00000    90.00000  Step:          50  Bead:       0 x_centroid{angstrom}  cell{atomic_unit}
       C -3.10973e-01 -7.96215e-02 -9.21108e-02
       O  8.63169e-01  2.33548e-01 -2.90468e-02
       H -7.88203e-01  9.37445e-01 -6.92950e-01
       H -3.75101e-01 -1.02484e+00  4.28438e-01
       L -2.17921e-01 -1.77891e+00  3.94645e+00
       L  5.15887e+00 -2.80572e+00  3.47195e+00
6
# CELL(abcABC):  459.05226   459.05226   459.05226    90.00000    90.00000    90.00000  Step:          51  Bead:       0 x_centroid{angstrom}  cell{atomic_unit}
       C -3.01569e-01 -8.77608e-02 -8.40242e-02
       O  8.55159e-01  2.36611e-01 -3.12736e-02
       H -7.48779e-01  9.89008e-01 -7.26013e-01
       H -3.99542e-01 -1.02803e+00  4.00427e-01
       L -2.17715e-01 -1.81269e+00  4.08744e+00
       L  5.33563e+00 -2.77800e+00  3.44067e+00
6
# CELL(abcABC):  459.05226   459.05226   459.05226    90.00000    90.00000    90.00000  Step:          52  Bead:       0 x_centroid{angstrom}  cell{atomic_unit}
       C -2.91457e-01 -9.47135e-02 -7.62933e-02
       O  8.47293e-01  2.39644e-01 -3.35182e-02
       H -7.13482e-01  1.02954e+00 -7.53674e-01
       H -4.30540e-01 -1.03388e+00  3.71622e-01
       L -2.03135e-01 -1.85772e+00  4.14381e+00
       L  5.47252e+00 -2.69548e+00  3.33654e+00
6
# CELL(abcABC):  459.05226   459.05226   459.05226    90.00000    90.00000    90.00000  Step:          53  Bead:       0 x_centroid{angstrom}  cell{atomic_unit}
       C -2.80828e-01 -1.00316e-01 -6.90294e-02
       O  8.39736e-01  2.42576e-01 -3.58505e-02
       H -6.83063e-01  1.05861e+00 -7.74795e-01
       H -4.67705e-01 -1.04275e+00  3.43295e-01
       L -2.26291e-01 -1.98826e+00  4.13824e+00
       L  5.54719e+00 -2.56374e+00  3.18048e+00
6
# CELL(abcABC):  459.05226   459.05226   459.05226    90.00000    90.00000    90.00000  Step:          54  Bead:       0 x_centroid{angstrom}  cell{atomic_unit}
       C -2.70023e-01 -1.04597e-01 -6.24362e-02
       O  8.32644e-01  2.45417e-01 -3.80897e-02
       H -6.58020e-01  1.07637e+00 -7.91114e-01
       H -5.08951e-01 -1.05460e+00  3.16702e-01
       L -2.16354e-01 -2.08969e+00  4.09703e+00
       L  5.58783e+00 -2.40533e+00  3.02124e+00
6
# CELL(abcABC):  459.05226   459.05226   459.05226    90.00000    90.00000    90.00000  Step:          55  Bead:       0 x_centroid{angstrom}  cell{atomic_unit}
       C -2.59484e-01 -1.07689e-01 -5.64507e-02
       O  8.26400e-01  2.48315e-01 -4.01700e-02
       H -6.38239e-01  1.08320e+00 -8.02695e-01
       H -5.55186e-01 -1.07064e+00  2.90103e-01
       L -2.22960e-01 -2.18474e+00  4.02682e+00
       L  5.54812e+00 -2.23941e+00  2.86654e+00
6
# CELL(abcABC):  459.05226   459.05226   459.05226    90.00000    90.00000    90.00000  Step:          56  Bead:       0 x_centroid{angstrom}  cell{atomic_unit}
       C -2.49547e-01 -1.09357e-01 -5.13340e-02
       O  8.21118e-01  2.50865e-01 -4.19792e-02
       H -6.23696e-01  1.07913e+00 -8.08014e-01
       H -6.04204e-01 -1.08719e+00  2.63323e-01
       L -2.47590e-01 -2.26990e+00  3.94523e+00
       L  5.42891e+00 -2.10391e+00  2.66498e+00
6
# CELL(abcABC):  459.05226   459.05226   459.05226    90.00000    90.00000    90.00000  Step:          57  Bead:       0 x_centroid{angstrom}  cell{atomic_unit}
       C -2.40654e-01 -1.10270e-01 -4.70832e-02
       O  8.17218e-01  2.53447e-01 -4.34403e-02
       H -6.15316e-01  1.06490e+00 -8.07536e-01
       H -6.56518e-01 -1.10310e+00  2.35564e-01
       L -2.95753e-01 -2.31667e+00  3.81205e+00
       L  5.23355e+00 -1.99315e+00  2.46993e+00
6
# CELL(abcABC):  459.05226   459.05226   459.05226    90.00000    90.00000    90.00000  Step:          58  Bead:       0 x_centroid{angstrom}  cell{atomic_unit}
       C -2.33168e-01 -1.10461e-01 -4.36382e-02
       O  8.14895e-01  2.55959e-01 -4.45363e-02
       H -6.13377e-01  1.04201e+00 -8.02759e-01
       H -7.10603e-01 -1.11787e+00  2.07336e-01
       L -3.66391e-01 -2.33498e+00  3.65912e+00
       L  4.97070e+00 -1.83970e+00  2.24769e+00
6
# CELL(abcABC):  459.05226   459.05226   459.05226    90.00000    90.00000    90.00000  Step:          59  Bead:       0 x_centroid{angstrom}  cell{atomic_unit}
       C -2.27552e-01 -1.10151e-01 -4.14945e-02
       O  8.14258e-01  2.58462e-01 -4.48805e-02
       H -6.16572e-01  1.00933e+00 -7.94358e-01
       H -7.64015e-01 -1.12871e+00  1.79058e-01
       L -4.16220e-01 -2.35408e+00  3.49169e+00
       L  4.64375e+00 -1.67418e+00  2.04034e+00
6
# CELL(abcABC):  459.05226   459.05226   459.05226    90.00000    90.00000    90.00000  Step:          60  Bead:       0 x_centroid{angstrom}  cell{atomic_unit}
       C -2.23921e-01 -1.09562e-01 -4.01753e-02
       O  8.15368e-01  2.60946e-01 -4.48559e-02
       H -6.27635e-01  9.67871e-01 -7.81473e-01
       H -8.13603e-01 -1.13375e+00  1.50270e-01
       L -4.67759e-01 -2.39034e+00  3.32800e+00
       L  4.26316e+00 -1.52656e+00  1.82197e+00
6
# CELL(abcABC):  459.05226   459.05226   459.05226    90.00000    90.00000    90.00000  Step:          61  Bead:       0 x_centroid{angstrom}  cell{atomic_unit}
       C -2.22535e-01 -1.08865e-01 -3.97859e-02
       O  8.18307e-01  2.63645e-01 -4.44767e-02
       H -6.44791e-01  9.17100e-01 -7.64093e-01
       H -8.59387e-01 -1.13420e+00  1.22459e-01
       L -4.78962e-01 -2.41812e+00  3.14815e+00
       L  3.86050e+00 -1.36621e+00  1.58470e+00
6
# CELL(abcABC):  459.05226   459.05226   459.05226    90.00000    90.00000    90.00000  Step:          62  Bead:       0 x_centroid{angstrom}  cell{atomic_unit}
       C -2.23407e-01 -1.07914e-01 -4.07296e-02
       O  8.22964e-01  2.66245e-01 -4.35735e-02
       H -6.68261e-01  8.60117e-01 -7.40854e-01
       H -8.99208e-01 -1.12989e+00  9.63880e-02
       L -4.62066e-01 -2.46260e+00  2.95226e+00
       L  3.38296e+00 -1.20520e+00  1.30214e+00
6
# CELL(abcABC):  459.05226   459.05226   459.05226    90.00000    90.00000    90.00000  Step:          63  Bead:       0 x_centroid{angstrom}  cell{atomic_unit}
       C -2.26587e-01 -1.06865e-01 -4.28879e-02
       O  8.29379e-01  2.68882e-01 -4.21621e-02
       H -6.99180e-01  7.96241e-01 -7.11843e-01
       H -9.31949e-01 -1.12048e+00  7.09471e-02
       L -4.49972e-01 -2.43895e+00  2.74401e+00
       L  2.87067e+00 -1.03046e+00  1.04394e+00
6
# CELL(abcABC):  459.05226   459.05226   459.05226    90.00000    90.00000    90.00000  Step:          64  Bead:       0 x_centroid{angstrom}  cell{atomic_unit}
       C -2.31564e-01 -1.05492e-01 -4.58769e-02
       O  8.37015e-01  2.71310e-01 -4.04450e-02
       H -7.35498e-01  7.25586e-01 -6.78634e-01
       H -9.57251e-01 -1.10486e+00  4.63662e-02
       L -4.24062e-01 -2.41138e+00  2.56905e+00
       L  2.32686e+00 -8.05733e-01  7.26792e-01
6
# CELL(abcABC):  459.05226   459.05226   459.05226    90.00000    90.00000    90.00000  Step:          65  Bead:       0 x_centroid{angstrom}  cell{atomic_unit}
       C -2.38070e-01 -1.04030e-01 -4.96767e-02
       O  8.45566e-01  2.73659e-01 -3.83069e-02
       H -7.76060e-01  6.50928e-01 -6.44057e-01
       H -9.74575e-01 -1.08509e+00  2.34058e-02
       L -4.32683e-01 -2.34026e+00  2.36416e+00
       L  1.74944e+00 -5.49601e-01  4.23625e-01
6
# CELL(abcABC):  459.05226   459.05226   459.05226    90.00000    90.00000    90.00000  Step:          66  Bead:       0 x_centroid{angstrom}  cell{atomic_unit}
       C -2.45896e-01 -1.02613e-01 -5.43952e-02