6
# CELL(abcABC):  459.05226   459.05226   459.05226    90.00000    90.00000    90.00000  Step:           0  Bead:       0 x_centroid{angstrom}  cell{atomic_unit}
       C -3.39887e-01 -1.13437e-01  8.06659e-02
       O  8.43483e-01  2.62672e-01 -1.81512e-01
       H -7.35799e-02  8.16467e-01 -6.61432e-01
       H -4.30016e-01 -9.65701e-01  7.62278e-01
       L  0.00000e+00  0.00000e+00  0.00000e+00
       L  0.00000e+00  0.00000e+00  0.00000e+00
6
# CELL(abcABC):  459.05226   459.05226   459.05226    90.00000    90.00000    90.00000  Step:           1  Bead:       0 x_centroid{angstrom}  cell{atomic_unit}
       C -3.37300e-01 -1.11414e-01  7.92468e-02
       O  8.40321e-01  2.61474e-01 -1.81607e-01
       H -6.74059e-02  8.14742e-01 -6.55093e-01
       H -4.17044e-01 -9.69475e-01  7.74147e-01
       L -1.34576e-01  4.73089e-01  3.76542e-01
       L  5.48279e-01  2.44184e-01  5.30820e-03
6
# CELL(abcABC):  459.05226   459.05226   459.05226    90.00000    90.00000    90.00000  Step:           2  Bead:       0 x_centroid{angstrom}  cell{atomic_unit}
       C -3.34825e-01 -1.09809e-01  7.81387e-02
       O  8.37247e-01  2.60436e-01 -1.81798e-01
       H -6.13844e-02  8.14397e-01 -6.49212e-01
       H -4.04003e-01 -9.72181e-01  7.84247e-01
       L -2.67987e-01  9.82899e-01  8.07951e-01
       L  1.09554e+00  4.86616e-01  3.23398e-02
6
# CELL(abcABC):  459.05226   459.05226   459.05226    90.00000    90.00000    90.00000  Step:           3  Bead:       0 x_centroid{angstrom}  cell{atomic_unit}
       C -3.32514e-01 -1.08529e-01  7.73193e-02
       O  8.34293e-01  2.59517e-01 -1.82008e-01
       H -5.56461e-02  8.13293e-01 -6.45383e-01
       H -3.90615e-01 -9.72109e-01  7.93282e-01
       L -3.78231e-01  1.44128e+00  1.24192e+00
       L  1.64403e+00  7.19594e-01  2.93798e-02
6
# CELL(abcABC):  459.05226   459.05226   459.05226    90.00000    90.00000    90.00000  Step:           4  Bead:       0 x_centroid{angstrom}  cell{atomic_unit}
       C -3.30431e-01 -1.07509e-01  7.69201e-02
       O  8.31497e-01  2.58631e-01 -1.82331e-01
       H -4.89950e-02  8.12535e-01 -6.42656e-01
       H -3.77930e-01 -9.69796e-01  8.00204e-01
       L -5.10952e-01  1.87565e+00  1.68740e+00
       L  2.19965e+00  9.26387e-01  2.59235e-02
6
# CELL(abcABC):  459.05226   459.05226   459.05226    90.00000    90.00000    90.00000  Step:           5  Bead:       0 x_centroid{angstrom}  cell{atomic_unit}
       C -3.28735e-01 -1.06892e-01  7.69704e-02
       O  8.28892e-01  2.57868e-01 -1.82661e-01
       H -4.15926e-02  8.14003e-01 -6.42929e-01
       H -3.64352e-01 -9.66837e-01  8.04925e-01
       L -7.09172e-01  2.27688e+00  2.05475e+00
       L  2.65942e+00  1.14838e+00 -1.31019e-02
6
# CELL(abcABC):  459.05226   459.05226   459.05226    90.00000    90.00000    90.00000  Step:           6  Bead:       0 x_centroid{angstrom}  cell{atomic_unit}
       C -3.27560e-01 -1.06884e-01  7.74378e-02
       O  8.26543e-01  2.57254e-01 -1.83112e-01
       H -3.14424e-02  8.18468e-01 -6.44572e-01
       H -3.51314e-01 -9.61968e-01  8.08002e-01
       L -9.15501e-01  2.64149e+00  2.39959e+00
       L  3.06248e+00  1.35513e+00 -6.24467e-02
6
# CELL(abcABC):  459.05226   459.05226   459.05226    90.00000    90.00000    90.00000  Step:           7  Bead:       0 x_centroid{angstrom}  cell{atomic_unit}
       C -3.27063e-01 -1.07510e-01  7.84425e-02
       O  8.24717e-01  2.56869e-01 -1.83668e-01
       H -2.05165e-02  8.24056e-01 -6.47933e-01
       H -3.39323e-01 -9.54279e-01  8.08083e-01
       L -1.07878e+00  2.98810e+00  2.70402e+00
       L  3.49486e+00  1.54951e+00 -1.18391e-01
6
# CELL(abcABC):  459.05226   459.05226   459.05226    90.00000    90.00000    90.00000  Step:           8  Bead:       0 x_centroid{angstrom}  cell{atomic_unit}
       C -3.27237e-01 -1.08597e-01  7.97397e-02
       O  8.23315e-01  2.56746e-01 -1.84308e-01
       H -6.52159e-03  8.30765e-01 -6.52511e-01
       H -3.29092e-01 -9.46343e-01  8.07200e-01
       L -1.27269e+00  3.32880e+00  3.05004e+00
       L  3.89164e+00  1.67207e+00 -1.70247e-01
6
# CELL(abcABC):  459.05226   459.05226   459.05226    90.00000    90.00000    90.00000  Step:           9  Bead:       0 x_centroid{angstrom}  cell{atomic_unit}
       C -3.28235e-01 -1.10299e-01  8.13570e-02
       O  8.22264e-01  2.56966e-01 -1.85081e-01
       H  1.17872e-02  8.39229e-01 -6.58820e-01
       H -3.18949e-01 -9.38234e-01  8.06302e-01
       L -1.46683e+00  3.62360e+00  3.40882e+00
       L  4.28613e+00  1.79616e+00 -1.60504e-01
6
# CELL(abcABC):  459.05226   459.05226   459.05226    90.00000    90.00000    90.00000  Step:          10  Bead:       0 x_centroid{angstrom}  cell{atomic_unit}
       C -3.29899e-01 -1.12507e-01  8.35244e-02
       O  8.21534e-01  2.57469e-01 -1.86229e-01
       H  3.45651e-02  8.50438e-01 -6.66342e-01
       H -3.10404e-01 -9.31311e-01  8.06037e-01
       L -1.64144e+00  3.87776e+00  3.72236e+00
       L  4.64422e+00  1.88451e+00 -1.27241e-01
6
# CELL(abcABC):  459.05226   459.05226   459.05226    90.00000    90.00000    90.00000  Step:          11  Bead:       0 x_centroid{angstrom}  cell{atomic_unit}
       C -3.32300e-01 -1.15235e-01  8.61926e-02
       O  8.20915e-01  2.58406e-01 -1.87830e-01
       H  6.41139e-02  8.63036e-01 -6.73644e-01
       H -3.01602e-01 -9.26434e-01  8.06825e-01
       L -1.81463e+00  4.13283e+00  3.96029e+00
       L  4.97726e+00  1.94438e+00 -1.15108e-01
6
# CELL(abcABC):  459.05226   459.05226   459.05226    90.00000    90.00000    90.00000  Step:          12  Bead:       0 x_centroid{angstrom}  cell{atomic_unit}
       C -3.35511e-01 -1.18426e-01  8.93589e-02
       O  8.20364e-01  2.59781e-01 -1.89886e-01
       H  1.02858e-01  8.76764e-01 -6.80964e-01
       H -2.93428e-01 -9.24118e-01  8.08904e-01
       L -1.92769e+00  4.35075e+00  4.20053e+00
       L  5.24081e+00  1.97609e+00 -8.84028e-02
6
# CELL(abcABC):  459.05226   459.05226   459.05226    90.00000    90.00000    90.00000  Step:          13  Bead:       0 x_centroid{angstrom}  cell{atomic_unit}
       C -3.39307e-01 -1.21956e-01  9.30849e-02
       O  8.19543e-01  2.61589e-01 -1.92301e-01
       H  1.52228e-01  8.89226e-01 -6.89595e-01
       H -2.84587e-01 -9.23313e-01  8.11331e-01
       L -2.05554e+00  4.52103e+00  4.43092e+00
       L  5.48030e+00  1.98735e+00 -6.23742e-02
6
# CELL(abcABC):  459.05226   459.05226   459.05226    90.00000    90.00000    90.00000  Step:          14  Bead:       0 x_centroid{angstrom}  cell{atomic_unit}
       C -3.43713e-01 -1.26187e-01  9.71831e-02
       O  8.18405e-01  2.64046e-01 -1.95063e-01
       H  2.13084e-01  9.02702e-01 -6.98468e-01
       H -2.74885e-01 -9.25417e-01  8.15074e-01
       L -2.15761e+00  4.64948e+00  4.60368e+00
       L  5.59480e+00  1.95778e+00 -1.60341e-03
6
# CELL(abcABC):  459.05226   459.05226   459.05226    90.00000    90.00000    90.00000  Step:          15  Bead:       0 x_centroid{angstrom}  cell{atomic_unit}
       C -3.48500e-01 -1.30830e-01  1.01632e-01
       O  8.16955e-01  2.66855e-01 -1.98205e-01
       H  2.82576e-01  9.16606e-01 -7.07614e-01
       H -2.64299e-01 -9.28639e-01  8.20996e-01
       L -2.26000e+00  4.77400e+00  4.75255e+00
       L  5.64610e+00  1.93070e+00  2.59277e-02
6
# CELL(abcABC):  459.05226   459.05226   459.05226    90.00000    90.00000    90.00000  Step:          16  Bead:       0 x_centroid{angstrom}  cell{atomic_unit}
       C -3.53691e-01 -1.35618e-01  1.06767e-01
       O  8.15355e-01  2.69776e-01 -2.01735e-01
       H  3.59564e-01  9.31872e-01 -7.19855e-01
       H -2.53919e-01 -9.33278e-01  8.28006e-01
       L -2.45173e+00  4.87633e+00  4.84878e+00
       L  5.65322e+00  1.92269e+00  5.98187e-02
6
# CELL(abcABC):  459.05226   459.05226   459.05226    90.00000    90.00000    90.00000  Step:          17  Bead:       0 x_centroid{angstrom}  cell{atomic_unit}
       C -3.59190e-01 -1.40547e-01  1.12035e-01
       O  8.13588e-01  2.72812e-01 -2.05277e-01
       H  4.41773e-01  9.48964e-01 -7.33641e-01
       H -2.42415e-01 -9.39817e-01  8.35186e-01
       L -2.62927e+00  4.92850e+00  4.89043e+00
       L  5.57661e+00  1.86906e+00  1.23094e-01
6
# CELL(abcABC):  459.05226   459.05226   459.05226    90.00000    90.00000    90.00000  Step:          18  Bead:       0 x_centroid{angstrom}  cell{atomic_unit}
       C -3.64966e-01 -1.45464e-01  1.17356e-01
       O  8.11644e-01  2.75751e-01 -2.08654e-01
       H  5.28908e-01  9.68021e-01 -7.50613e-01
       H -2.29716e-01 -9.46873e-01  8.42301e-01
       L -2.78271e+00  4.92920e+00  4.94678e+00
       L  5.45641e+00  1.74968e+00  1.53979e-01
6
# CELL(abcABC):  459.05226   459.05226   459.05226    90.00000    90.00000    90.00000  Step:          19  Bead:       0 x_centroid{angstrom}  cell{atomic_unit}
       C -3.71096e-01 -1.50442e-01  1.22800e-01
       O  8.09709e-01  2.78597e-01 -2.11943e-01
       H  6.18781e-01  9.90862e-01 -7.70692e-01
       H -2.15717e-01 -9.55486e-01  8.49698e-01
       L -2.88028e+00  4.87796e+00  4.96674e+00
       L  5.34749e+00  1.63359e+00  1.82136e-01
6
# CELL(abcABC):  459.05226   459.05226   459.05226    90.00000    90.00000    90.00000  Step:          20  Bead:       0 x_centroid{angstrom}  cell{atomic_unit}
       C -3.77705e-01 -1.55006e-01  1.28170e-01
       O  8.07908e-01  2.81003e-01 -2.15031e-01
       H  7.09586e-01  1.01768e+00 -7.93251e-01
       H -1.99052e-01 -9.65919e-01  8.57288e-01
       L -2.96565e+00  4.74565e+00  4.94541e+00
       L  5.18087e+00  1.44547e+00  1.97736e-01
6
# CELL(abcABC):  459.05226   459.05226   459.05226    90.00000    90.00000    90.00000  Step:          21  Bead:       0 x_centroid{angstrom}  cell{atomic_unit}
       C -3.84389e-01 -1.59486e-01  1.33671e-01
       O  8.06165e-01  2.83322e-01 -2.18111e-01
       H  7.99842e-01  1.04401e+00 -8.16956e-01
       H -1.81839e-01 -9.75496e-01  8.64357e-01
       L -3.04228e+00  4.57390e+00  4.85690e+00
       L  4.97955e+00  1.24290e+00  2.38807e-01
6
# CELL(abcABC):  459.05226   459.05226   459.05226    90.00000    90.00000    90.00000  Step:          22  Bead:       0 x_centroid{angstrom}  cell{atomic_unit}
       C -3.90953e-01 -1.64161e-01  1.39087e-01
       O  8.04411e-01  2.85804e-01 -2.21125e-01
       H  8.88125e-01  1.06853e+00 -8.38910e-01
       H -1.63914e-01 -9.83392e-01  8.69612e-01
       L -3.08751e+00  4.34234e+00  4.75307e+00
       L  4.74624e+00  9.42137e-01  3.39437e-01
6
# CELL(abcABC):  459.05226   459.05226   459.05226    90.00000    90.00000    90.00000  Step:          23  Bead:       0 x_centroid{angstrom}  cell{atomic_unit}
       C -3.97250e-01 -1.68636e-01  1.44524e-01
       O  8.02758e-01  2.88396e-01 -2.24301e-01
       H  9.72557e-01  1.08793e+00 -8.57524e-01
       H -1.46933e-01 -9.90340e-01  8.73910e-01
       L -3.08335e+00  4.09078e+00  4.57416e+00
       L  4.49306e+00  6.65643e-01  4.42912e-01
6
# CELL(abcABC):  459.05226   459.05226   459.05226    90.00000    90.00000    90.00000  Step:          24  Bead:       0 x_centroid{angstrom}  cell{atomic_unit}
       C -4.03191e-01 -1.72981e-01  1.49709e-01
       O  8.01193e-01  2.91114e-01 -2.27399e-01
       H  1.05161e+00  1.10122e+00 -8.71121e-01
       H -1.30228e-01 -9.94699e-01  8.74953e-01
       L -3.07482e+00  3.83087e+00  4.36655e+00
       L  4.25985e+00  4.09358e-01  5.21360e-01
6
# CELL(abcABC):  459.05226   459.05226   459.05226    90.00000    90.00000    90.00000  Step:          25  Bead:       0 x_centroid{angstrom}  cell{atomic_unit}
       C -4.08516e-01 -1.76970e-01  1.54680e-01
       O  7.99697e-01  2.94087e-01 -2.30638e-01
       H  1.12263e+00  1.10509e+00 -8.78536e-01
       H -1.13919e-01 -9.97896e-01  8.74673e-01
       L -3.02140e+00  3.49997e+00  4.08618e+00
       L  3.96004e+00  1.21847e-01  5.71940e-01
6
# CELL(abcABC):  459.05226   459.05226   459.05226    90.00000    90.00000    90.00000  Step:          26  Bead:       0 x_centroid{angstrom}  cell{atomic_unit}
       C -4.13311e-01 -1.80851e-01  1.59434e-01
       O  7.98332e-01  2.97249e-01 -2.34130e-01
       H  1.18508e+00  1.10138e+00 -8.78464e-01
       H -9.74034e-02 -9.97763e-01  8.73502e-01
       L -2.96458e+00  3.10621e+00  3.81398e+00
       L  3.63339e+00 -1.60655e-01  6.31723e-01
6
# CELL(abcABC):  459.05226   459.05226   459.05226    90.00000    90.00000    90.00000  Step:          27  Bead:       0 x_centroid{angstrom}  cell{atomic_unit}
       C -4.17438e-01 -1.84512e-01  1.63752e-01
       O  7.97180e-01  3.00747e-01 -2.37665e-01
       H  1.23770e+00  1.08810e+00 -8.71167e-01
       H -8.24287e-02 -9.96008e-01  8.70977e-01
       L -2.86822e+00  2.68909e+00  3.52789e+00
       L  3.29436e+00 -4.49626e-01  7.20201e-01
6
# CELL(abcABC):  459.05226   459.05226   459.05226    90.00000    90.00000    90.00000  Step:          28  Bead:       0 x_centroid{angstrom}  cell{atomic_unit}
       C -4.20934e-01 -1.88001e-01  1.67902e-01
       O  7.96256e-01  3.04550e-01 -2.41368e-01
       H  1.27980e+00  1.06691e+00 -8.56926e-01
       H -6.80756e-02 -9.93201e-01  8.66198e-01
       L -2.74599e+00  2.23996e+00  3.17384e+00
       L  2.93019e+00 -7.20254e-01  7.93771e-01
6
# CELL(abcABC):  459.05226   459.05226   459.05226    90.00000    90.00000    90.00000  Step:          29  Bead:       0 x_centroid{angstrom}  cell{atomic_unit}
       C -4.24121e-01 -1.90807e-01  1.71938e-01
       O  7.95824e-01  3.08237e-01 -2.45219e-01
       H  1.31215e+00  1.03854e+00 -8.37332e-01
       H -5.54931e-02 -9.89567e-01  8.59871e-01
       L -2.51436e+00  1.78400e+00  2.74842e+00
       L  2.51490e+00 -9.31617e-01  8.17130e-01
6
# CELL(abcABC):  459.05226   459.05226   459.05226    90.00000    90.00000    90.00000  Step:          30  Bead:       0 x_centroid{angstrom}  cell{atomic_unit}
       C -4.26578e-01 -1.93275e-01  1.75675e-01
       O  7.95544e-01  3.12031e-01 -2.49204e-01
       H  1.33364e+00  1.00468e+00 -8.10767e-01
       H -4.31845e-02 -9.86171e-01  8.52273e-01
       L -2.22531e+00  1.33063e+00  2.29184e+00
       L  2.08714e+00 -1.11085e+00  8.28029e-01
6
# CELL(abcABC):  459.05226   459.05226   459.05226    90.00000    90.00000    90.00000  Step:          31  Bead:       0 x_centroid{angstrom}  cell{atomic_unit}
       C -4.28495e-01 -1.95379e-01  1.79276e-01
       O  7.95518e-01  3.15759e-01 -2.53213e-01
       H  1.34487e+00  9.65643e-01 -7.81416e-01
       H -3.11024e-02 -9.80914e-01  8.43929e-01
       L -1.88841e+00  9.02233e-01  1.81303e+00
       L  1.65302e+00 -1.28316e+00  7.88101e-01
6
# CELL(abcABC):  459.05226   459.05226   459.05226    90.00000    90.00000    90.00000  Step:          32  Bead:       0 x_centroid{angstrom}  cell{atomic_unit}
       C -4.29768e-01 -1.96877e-01  1.82430e-01
       O  7.95520e-01  3.19228e-01 -2.57095e-01
       H  1.34747e+00  9.24325e-01 -7.48685e-01
       H -1.85219e-02 -9.76450e-01  8.35481e-01
       L -1.53079e+00  4.23332e-01  1.34784e+00
       L  1.20633e+00 -1.45914e+00  8.04195e-01
6
# CELL(abcABC):  459.05226   459.05226   459.05226    90.00000    90.00000    90.00000  Step:          33  Bead:       0 x_centroid{angstrom}  cell{atomic_unit}
       C -4.30385e-01 -1.97696e-01  1.85054e-01
       O  7.95426e-01  3.22131e-01 -2.60671e-01
       H  1.34523e+00  8.83292e-01 -7.15801e-01
       H -7.41658e-03 -9.71428e-01  8.28355e-01
       L -1.13485e+00 -5.33866e-02  8.54145e-01
       L  7.83351e-01 -1.57925e+00  8.02372e-01
6
# CELL(abcABC):  459.05226   459.05226   459.05226    90.00000    90.00000    90.00000  Step:          34  Bead:       0 x_centroid{angstrom}  cell{atomic_unit}
       C -4.30193e-01 -1.98134e-01  1.87359e-01
       O  7.94673e-01  3.24367e-01 -2.63779e-01
       H  1.34276e+00  8.46916e-01 -6.87013e-01
       H  4.69190e-03 -9.65014e-01  8.21706e-01
       L -6.68939e-01 -4.64974e-01  3.41252e-01
       L  3.52988e-01 -1.72258e+00  8.33203e-01
6
# CELL(abcABC):  459.05226   459.05226   459.05226    90.00000    90.00000    90.00000  Step:          35  Bead:       0 x_centroid{angstrom}  cell{atomic_unit}
       C -4.29145e-01 -1.97928e-01  1.89460e-01
       O  7.92888e-01  3.25387e-01 -2.66039e-01
       H  1.34668e+00  8.22286e-01 -6.68536e-01
       H  1.66236e-02 -9.58756e-01  8.14316e-01
       L -1.92195e-01 -8.43235e-01 -1.67696e-01
       L -1.17395e-01 -1.85737e+00  8.70982e-01
6
# CELL(abcABC):  459.05226   459.05226   459.05226    90.00000    90.00000    90.00000  Step:          36  Bead:       0 x_centroid{angstrom}  cell{atomic_unit}
       C -4.27466e-01 -1.97069e-01  1.91302e-01
       O  7.90120e-01  3.25122e-01 -2.67486e-01
       H  1.36009e+00  8.12728e-01 -6.61826e-01
       H  2.71610e-02 -9.54928e-01  8.08918e-01
       L  2.94475e-01 -1.21256e+00 -6.84799e-01
       L -6.51619e-01 -2.02888e+00  8.48660e-01
6
# CELL(abcABC):  459.05226   459.05226   459.05226    90.00000    90.00000    90.00000  Step:          37  Bead:       0 x_centroid{angstrom}  cell{atomic_unit}
       C -4.25250e-01 -1.95429e-01  1.92486e-01
       O  7.86370e-01  3.23631e-01 -2.67846e-01
       H  1.38326e+00  8.16478e-01 -6.65981e-01
       H  3.71099e-02 -9.54338e-01  8.04993e-01
       L  7.89251e-01 -1.51245e+00 -1.22724e+00
       L -1.15670e+00 -2.14909e+00  8.40876e-01
6
# CELL(abcABC):  459.05226   459.05226   459.05226    90.00000    90.00000    90.00000  Step:          38  Bead:       0 x_centroid{angstrom}  cell{atomic_unit}
       C -4.22247e-01 -1.93335e-01  1.93303e-01
       O  7.81727e-01  3.21246e-01 -2.67572e-01
       H  1.41239e+00  8.30568e-01 -6.78089e-01
       H  4.59219e-02 -9.55336e-01  8.03357e-01
       L  1.24203e+00 -1.80984e+00 -1.76829e+00
       L -1.63610e+00 -2.17687e+00  7.54683e-01
6
# CELL(abcABC):  459.05226   459.05226   459.05226    90.00000    90.00000    90.00000  Step:          39  Bead:       0 x_centroid{angstrom}  cell{atomic_unit}
       C -4.18739e-01 -1.90990e-01  1.93411e-01
       O  7.76879e-01  3.18622e-01 -2.66611e-01
       H  1.44150e+00  8.47348e-01 -6.94077e-01
       H  5.19959e-02 -9.58196e-01  8.03116e-01
       L  1.65097e+00 -2.13232e+00 -2.30841e+00
       L -2.11908e+00 -2.22895e+00  6.98799e-01
6
# CELL(abcABC):  459.05226   459.05226   459.05226    90.00000    90.00000    90.00000  Step:          40  Bead:       0 x_centroid{angstrom}  cell{atomic_unit}
       C -4.14751e-01 -1.88482e-01  1.93357e-01
       O  7.72079e-01  3.15901e-01 -2.65591e-01
       H  1.46556e+00  8.64635e-01 -7.10449e-01
       H  5.66355e-02 -9.61977e-01  8.04279e-01
       L  2.02961e+00 -2.44915e+00 -2.81573e+00
       L -2.53481e+00 -2.28802e+00  6.04838e-01
6
# CELL(abcABC):  459.05226   459.05226   459.05226    90.00000    90.00000    90.00000  Step:          41  Bead:       0 x_centroid{angstrom}  cell{atomic_unit}
       C -4.10400e-01 -1.85709e-01  1.93239e-01
       O  7.67480e-01  3.13206e-01 -2.64698e-01
       H  1.48354e+00  8.80106e-01 -7.24748e-01
       H  5.98319e-02 -9.67551e-01  8.06106e-01
       L  2.36572e+00 -2.73313e+00 -3.27368e+00
       L -2.92195e+00 -2.28837e+00  4.92628e-01
6
# CELL(abcABC):  459.05226   459.05226   459.05226    90.00000    90.00000    90.00000  Step:          42  Bead:       0 x_centroid{angstrom}  cell{atomic_unit}
       C -4.05653e-01 -1.82511e-01  1.93092e-01
       O  7.63383e-01  3.10429e-01 -2.64144e-01
       H  1.49114e+00  8.92618e-01 -7.35920e-01
       H  6.07463e-02 -9.73960e-01  8.10520e-01
       L  2.66253e+00 -3.00535e+00 -3.64250e+00
       L -3.28425e+00 -2.27563e+00  3.54448e-01
6
# CELL(abcABC):  459.05226   459.05226   459.05226    90.00000    90.00000    90.00000  Step:          43  Bead:       0 x_centroid{angstrom}  cell{atomic_unit}
       C -4.00879e-01 -1.78866e-01  1.92749e-01
       O  7.59963e-01  3.07615e-01 -2.63644e-01
       H  1.48941e+00  9.00395e-01 -7.44074e-01
       H  5.99212e-02 -9.80405e-01  8.15094e-01
       L  2.89068e+00 -3.23744e+00 -4.02471e+00
       L -3.58788e+00 -2.23131e+00  2.32807e-01
6
# CELL(abcABC):  459.05226   459.05226   459.05226    90.00000    90.00000    90.00000  Step:          44  Bead:       0 x_centroid{angstrom}  cell{atomic_unit}
       C -3.95801e-01 -1.75100e-01  1.92526e-01
       O  7.57094e-01  3.05011e-01 -2.63408e-01
       H  1.47794e+00  9.03883e-01 -7.48864e-01
       H  5.64762e-02 -9.87319e-01  8.19059e-01
       L  3.07847e+00 -3.47548e+00 -4.39239e+00
       L -3.90183e+00 -2.19169e+00  1.26049e-01
6
# CELL(abcABC):  459.05226   459.05226   459.05226    90.00000    90.00000    90.00000  Step:          45  Bead:       0 x_centroid{angstrom}  cell{atomic_unit}
       C -3.90453e-01 -1.70877e-01  1.92360e-01
       O  7.54910e-01  3.02257e-01 -2.63483e-01
       H  1.45420e+00  9.03972e-01 -7.49544e-01
       H  5.11772e-02 -9.93895e-01  8.23173e-01
       L  3.29074e+00 -3.76847e+00 -4.72762e+00
       L -4.16552e+00 -2.11010e+00 -1.61606e-02
6
# CELL(abcABC):  459.05226   459.05226   459.05226    90.00000    90.00000    90.00000  Step:          46  Bead:       0 x_centroid{angstrom}  cell{atomic_unit}
       C -3.84669e-01 -1.66640e-01  1.92367e-01
       O  7.53169e-01  2.99754e-01 -2.63897e-01
       H  1.42012e+00  8.99641e-01 -7.45430e-01
       H  4.40064e-02 -1.00027e+00  8.25780e-01
       L  3.46546e+00 -3.97737e+00 -5.00433e+00
       L -4.41032e+00 -2.01262e+00 -1.68965e-01
6
# CELL(abcABC):  459.05226   459.05226   459.05226    90.00000    90.00000    90.00000  Step:          47  Bead:       0 x_centroid{angstrom}  cell{atomic_unit}
       C -3.78786e-01 -1.62205e-01  1.92420e-01
       O  7.52048e-01  2.97369e-01 -2.64459e-01
       H  1.37681e+00  8.90835e-01 -7.37557e-01
       H  3.50368e-02 -1.00643e+00  8.26365e-01
       L  3.65622e+00 -4.13912e+00 -5.18289e+00
       L -4.65254e+00 -1.88127e+00 -3.02720e-01
6
# CELL(abcABC):  459.05226   459.05226   459.05226    90.00000    90.00000    90.00000  Step:          48  Bead:       0 x_centroid{angstrom}  cell{atomic_unit}
       C -3.72905e-01 -1.57558e-01  1.92506e-01
       O  7.51450e-01  2.94776e-01 -2.65120e-01
       H  1.32815e+00  8.81596e-01 -7.27839e-01
       H  2.31294e-02 -1.01136e+00  8.26246e-01
       L  3.81050e+00 -4.30095e+00 -5.29967e+00
       L -4.83388e+00 -1.79643e+00 -4.36128e-01
6
# CELL(abcABC):  459.05226   459.05226   459.05226    90.00000    90.00000    90.00000  Step:          49  Bead:       0 x_centroid{angstrom}  cell{atomic_unit}
       C -3.67028e-01 -1.52943e-01  1.92885e-01
       O  7.51199e-01  2.91920e-01 -2.65812e-01
       H  1.27567e+00  8.74925e-01 -7.19291e-01
       H  9.60231e-03 -1.01437e+00  8.24296e-01
       L  3.90002e+00 -4.39350e+00 -5.37302e+00
       L -4.98505e+00 -1.67476e+00 -5.93281e-01
6
# CELL(abcABC):  459.05226   459.05226   459.05226    90.00000    90.00000    90.00000  Step:          50  Bead:       0 x_centroid{angstrom}  cell{atomic_unit}
       C -3.61217e-01 -1.48401e-01  1.93211e-01
       O  7.51129e-01  2.88689e-01 -2.66155e-01
       H  1.22307e+00  8.72744e-01 -7.14828e-01
       H -5.88161e-03 -1.01509e+00  8.21451e-01
       L  3.91219e+00 -4.44178e+00 -5.35193e+00
       L -5.07235e+00 -1.52692e+00 -7.41041e-01
6
# CELL(abcABC):  459.05226   459.05226   459.05226    90.00000    90.00000    90.00000  Step:          51  Bead:       0 x_centroid{angstrom}  cell{atomic_unit}
       C -3.55349e-01 -1.43538e-01  1.93788e-01
       O  7.50923e-01  2.84422e-01 -2.66066e-01
       H  1.17282e+00  8.81615e-01 -7.19221e-01
       H -2.22536e-02 -1.01427e+00  8.17618e-01
       L  3.88383e+00 -4.44922e+00 -5.35209e+00
       L -5.11307e+00 -1.34463e+00 -8.57772e-01
6
# CELL(abcABC):  459.05226   459.05226   459.05226    90.00000    90.00000    90.00000  Step:          52  Bead:       0 x_centroid{angstrom}  cell{atomic_unit}
       C -3.49779e-01 -1.38682e-01  1.94263e-01
       O  7.50602e-01  2.79295e-01 -2.65293e-01
       H  1.12713e+00  9.03109e-01 -7.33588e-01
       H -3.77951e-02 -1.01235e+00  8.14125e-01
       L  3.81583e+00 -4.42863e+00 -5.36500e+00
       L -5.13513e+00 -1.15505e+00 -9.69294e-01
6
# CELL(abcABC):  459.05226   459.05226   459.05226    90.00000    90.00000    90.00000  Step:          53  Bead:       0 x_centroid{angstrom}  cell{atomic_unit}
       C -3.44829e-01 -1.33716e-01  1.94874e-01
       O  7.50600e-01  2.73281e-01 -2.63971e-01
       H  1.08366e+00  9.36888e-01 -7.56742e-01
       H -5.32407e-02 -1.00999e+00  8.09042e-01
       L  3.72861e+00 -4.38480e+00 -5.30417e+00
       L -5.11466e+00 -9.40618e-01 -1.06514e+00
6
# CELL(abcABC):  459.05226   459.05226   459.05226    90.00000    90.00000    90.00000  Step:          54  Bead:       0 x_centroid{angstrom}  cell{atomic_unit}
       C -3.40511e-01 -1.28465e-01  1.95700e-01
       O  7.51041e-01  2.66448e-01 -2.62431e-01
       H  1.04029e+00  9.78706e-01 -7.85312e-01
       H -6.82272e-02 -1.00609e+00  8.03264e-01
       L  3.53868e+00 -4.30355e+00 -5.20093e+00
       L -5.09266e+00 -7.05088e-01 -1.05677e+00
6
# CELL(abcABC):  459.05226   459.05226   459.05226    90.00000    90.00000    90.00000  Step:          55  Bead:       0 x_centroid{angstrom}  cell{atomic_unit}
       C -3.36920e-01 -1.23133e-01  1.96628e-01
       O  7.52271e-01  2.59404e-01 -2.60795e-01
       H  9.93824e-01  1.02232e+00 -8.17457e-01
       H -8.40075e-02 -1.00156e+00  7.98245e-01
       L  3.37113e+00 -4.24212e+00 -4.99429e+00
       L -5.04965e+00 -5.33903e-01 -1.01300e+00
6
# CELL(abcABC):  459.05226   459.05226   459.05226    90.00000    90.00000    90.00000  Step:          56  Bead:       0 x_centroid{angstrom}  cell{atomic_unit}
       C -3.33954e-01 -1.18139e-01  1.97551e-01
       O  7.54135e-01  2.52756e-01 -2.59296e-01
       H  9.42745e-01  1.06556e+00 -8.48412e-01
       H -9.77960e-02 -9.98920e-01  7.94220e-01
       L  3.15820e+00 -4.16839e+00 -4.71808e+00
       L -4.96867e+00 -3.47172e-01 -9.71994e-01
6
# CELL(abcABC):  459.05226   459.05226   459.05226    90.00000    90.00000    90.00000  Step:          57  Bead:       0 x_centroid{angstrom}  cell{atomic_unit}
       C -3.31708e-01 -1.12897e-01  1.98295e-01
       O  7.56714e-01  2.46251e-01 -2.58027e-01
       H  8.87815e-01  1.10329e+00 -8.74159e-01
       H -1.10509e-01 -9.96049e-01  7.90687e-01
       L  2.91231e+00 -4.01469e+00 -4.34255e+00
       L -4.84141e+00 -1.45210e-01 -8.38408e-01
6
# CELL(abcABC):  459.05226   459.05226   459.05226    90.00000    90.00000    90.00000  Step:          58  Bead:       0 x_centroid{angstrom}  cell{atomic_unit}
       C -3.30679e-01 -1.07727e-01  1.98995e-01
       O  7.60369e-01  2.40382e-01 -2.57110e-01
       H  8.29139e-01  1.13313e+00 -8.94211e-01
       H -1.22054e-01 -9.94508e-01  7.87499e-01
       L  2.65267e+00 -3.86930e+00 -3.85867e+00
       L -4.66930e+00  4.45472e-02 -6.81144e-01
6
# CELL(abcABC):  459.05226   459.05226   459.05226    90.00000    90.00000    90.00000  Step:          59  Bead:       0 x_centroid{angstrom}  cell{atomic_unit}
       C -3.30424e-01 -1.02546e-01  1.99951e-01
       O  7.64592e-01  2.35044e-01 -2.56893e-01
       H  7.68225e-01  1.15533e+00 -9.07114e-01
       H -1.31166e-01 -9.93918e-01  7.85226e-01
       L  2.35132e+00 -3.64359e+00 -3.32857e+00
       L -4.46160e+00  1.96102e-01 -5.86585e-01
6
# CELL(abcABC):  459.05226   459.05226   459.05226    90.00000    90.00000    90.00000  Step:          60  Bead:       0 x_centroid{angstrom}  cell{atomic_unit}
       C -3.30658e-01 -9.75492e-02  2.00657e-01
       O  7.69231e-01  2.30637e-01 -2.57047e-01
       H  7.06303e-01  1.16671e+00 -9.12276e-01
       H -1.40074e-01 -9.95130e-01  7.84050e-01
       L  2.04698e+00 -3.36385e+00 -2.71927e+00
       L -4.18916e+00  3.51369e-01 -5.31908e-01
6
# CELL(abcABC):  459.05226   459.05226   459.05226    90.00000    90.00000    90.00000  Step:          61  Bead:       0 x_centroid{angstrom}  cell{atomic_unit}
       C -3.31940e-01 -9.28076e-02  2.01607e-01
       O  7.74476e-01  2.27266e-01 -2.57914e-01
       H  6.45912e-01  1.16664e+00 -9.09589e-01
       H -1.47653e-01 -9.98256e-01  7.83437e-01
       L  1.70382e+00 -3.10892e+00 -2.07999e+00
       L -3.85266e+00  4.61485e-01 -4.77266e-01
6
# CELL(abcABC):  459.05226   459.05226   459.05226    90.00000    90.00000    90.00000  Step:          62  Bead:       0 x_centroid{angstrom}  cell{atomic_unit}
       C -3.33872e-01 -8.83625e-02  2.02552e-01
       O  7.79986e-01  2.24879e-01 -2.59380e-01
       H  5.88625e-01  1.15560e+00 -8.97896e-01
       H -1.54800e-01 -1.00248e+00  7.83350e-01
       L  1.30851e+00 -2.88836e+00 -1.37107e+00
       L -3.48891e+00  5.80388e-01 -4.49622e-01
6
# CELL(abcABC):  459.05226   459.05226   459.05226    90.00000    90.00000    90.00000  Step:          63  Bead:       0 x_centroid{angstrom}  cell{atomic_unit}
       C -3.36370e-01 -8.41686e-02  2.03405e-01
       O  7.85641e-01  2.23553e-01 -2.61236e-01
       H  5.34677e-01  1.13305e+00 -8.79203e-01
       H -1.60805e-01 -1.00906e+00  7.83527e-01
       L  8.77229e-01 -2.58705e+00 -6.30405e-01
       L -3.12209e+00  6.79904e-01 -4.15752e-01
6
# CELL(abcABC):  459.05226   459.05226   459.05226    90.00000    90.00000    90.00000  Step:          64  Bead:       0 x_centroid{angstrom}  cell{atomic_unit}
       C -3.39717e-01 -8.05756e-02  2.04645e-01
       O  7.91590e-01  2.23262e-01 -2.63664e-01
       H  4.85921e-01  1.10057e+00 -8.54342e-01
       H -1.66619e-01 -1.01497e+00  7.81989e-01
       L  4.50901e-01 -2.27705e+00  1.62878e-01
       L -2.68150e+00  7.26976e-01 -3.77940e-01
6
# CELL(abcABC):  459.05226   459.05226   459.05226    90.00000    90.00000    90.00000  Step:          65  Bead:       0 x_centroid{angstrom}  cell{atomic_unit}
       C -3.43507e-01 -7.72299e-02  2.06353e-01
       O  7.97432e-01  2.23757e-01 -2.66748e-01
       H  4.43802e-01  1.05868e+00 -8.23121e-01
       H -1.72098e-01 -1.02098e+00  7.78874e-01
       L  3.66993e-02 -1.97177e+00  9.64223e-01
       L -2.21593e+00  7.14991e-01 -2.94154e-01
6
# CELL(abcABC):  459.05226   459.05226   459.05226    90.00000    90.00000    90.00000  Step:          66  Bead:       0 x_centroid{angstrom}  cell{atomic_unit}
       C -3.47660e-01 -7.43492e-02  2.08287e-01