6
# CELL(abcABC):  459.05226   459.05226   459.05226    90.00000    90.00000    90.00000  Step:           0  Bead:       0 x_centroid{angstrom}  cell{atomic_unit}
       C -3.39887e-01 -1.13437e-01  8.06659e-02
       O  8.43483e-01  2.62672e-01 -1.81512e-01
       H -7.35799e-02  8.16467e-01 -6.61432e-01
       H -4.30016e-01 -9.65701e-01  7.62278e-01
       L  0.00000e+00  0.00000e+00  0.00000e+00
       L  0.00000e+00  0.00000e+00  0.00000e+00
6
# CELL(abcABC):  459.05226   459.05226   459.05226    90.00000    90.00000    90.00000  Step:           1  Bead:       0 x_centroid{angstrom}  cell{atomic_unit}
       C -3.40931e-01 -1.15825e-01  7.78083e-02
       O  8.43454e-01  2.64810e-01 -1.79519e-01
       H -6.93648e-02  8.15687e-01 -6.67108e-01
       H -4.21647e-01 -9.70311e-01  7.70472e-01
       L  4.85233e-01  6.38878e-02 -6.51962e-01
       L  8.64033e-02 -2.43183e-01  4.58533e-01
6
# CELL(abcABC):  459.05226   459.05226   459.05226    90.00000    90.00000    90.00000  Step:           2  Bead:       0 x_centroid{angstrom}  cell{atomic_unit}
       C -3.41818e-01 -1.17710e-01  7.49448e-02
       O  8.43264e-01  2.66589e-01 -1.77427e-01
       H -6.50343e-02  8.14099e-01 -6.73576e-01
       H -4.12671e-01 -9.74417e-01  7.77940e-01
       L  9.73140e-01  9.55352e-02 -1.26127e+00
       L  1.26613e-01 -4.32252e-01  8.97320e-01
6
# CELL(abcABC):  459.05226   459.05226   459.05226    90.00000    90.00000    90.00000  Step:           3  Bead:       0 x_centroid{angstrom}  cell{atomic_unit}
       C -3.42645e-01 -1.19957e-01  7.23059e-02
       O  8.43000e-01  2.68634e-01 -1.75485e-01
       H -6.00470e-02  8.13620e-01 -6.80288e-01
       H -4.03905e-01 -9.79564e-01  7.85369e-01
       L  1.48618e+00  1.30853e-01 -1.91214e+00
       L  1.28658e-01 -5.88857e-01  1.38514e+00
6
# CELL(abcABC):  459.05226   459.05226   459.05226    90.00000    90.00000    90.00000  Step:           4  Bead:       0 x_centroid{angstrom}  cell{atomic_unit}
       C -3.43104e-01 -1.22317e-01  7.01717e-02
       O  8.42383e-01  2.70735e-01 -1.73790e-01
       H -5.34533e-02  8.13065e-01 -6.87886e-01
       H -3.95512e-01 -9.84139e-01  7.91566e-01
       L  2.03702e+00  1.60999e-01 -2.52856e+00
       L  9.26273e-02 -7.80007e-01  1.85512e+00
6
# CELL(abcABC):  459.05226   459.05226   459.05226    90.00000    90.00000    90.00000  Step:           5  Bead:       0 x_centroid{angstrom}  cell{atomic_unit}
       C -3.43625e-01 -1.25247e-01  6.82258e-02
       O  8.41752e-01  2.73064e-01 -1.72121e-01
       H -4.44754e-02  8.13539e-01 -6.95991e-01
       H -3.88533e-01 -9.86547e-01  7.96415e-01
       L  2.56032e+00  1.59309e-01 -3.09545e+00
       L  8.83980e-02 -9.91630e-01  2.32841e+00
6
# CELL(abcABC):  459.05226   459.05226   459.05226    90.00000    90.00000    90.00000  Step:           6  Bead:       0 x_centroid{angstrom}  cell{atomic_unit}
       C -3.44161e-01 -1.28356e-01  6.66645e-02
       O  8.41060e-01  2.75513e-01 -1.70689e-01
       H -3.35280e-02  8.13874e-01 -7.04395e-01
       H -3.82354e-01 -9.88635e-01  8.00737e-01
       L  3.03593e+00  1.84308e-01 -3.66124e+00
       L  6.05261e-02 -1.16209e+00  2.81506e+00
6
# CELL(abcABC):  459.05226   459.05226   459.05226    90.00000    90.00000    90.00000  Step:           7  Bead:       0 x_centroid{angstrom}  cell{atomic_unit}
       C -3.44570e-01 -1.31809e-01  6.54674e-02
       O  8.40044e-01  2.78087e-01 -1.69526e-01
       H -1.95196e-02  8.14119e-01 -7.11433e-01
       H -3.75623e-01 -9.88524e-01  8.03647e-01
       L  3.51013e+00  2.15905e-01 -4.21188e+00
       L  4.25367e-02 -1.32513e+00  3.24974e+00
6
# CELL(abcABC):  459.05226   459.05226   459.05226    90.00000    90.00000    90.00000  Step:           8  Bead:       0 x_centroid{angstrom}  cell{atomic_unit}
       C -3.44924e-01 -1.35748e-01  6.44150e-02
       O  8.38749e-01  2.80959e-01 -1.68392e-01
       H -3.29445e-03  8.13820e-01 -7.17341e-01
       H -3.67297e-01 -9.86789e-01  8.04201e-01
       L  3.91292e+00  2.32705e-01 -4.75888e+00
       L  7.38165e-02 -1.49327e+00  3.60395e+00
6
# CELL(abcABC):  459.05226   459.05226   459.05226    90.00000    90.00000    90.00000  Step:           9  Bead:       0 x_centroid{angstrom}  cell{atomic_unit}
       C -3.45531e-01 -1.40047e-01  6.36157e-02
       O  8.37300e-01  2.83936e-01 -1.67347e-01
       H  1.74886e-02  8.14177e-01 -7.22748e-01
       H -3.58048e-01 -9.83166e-01  8.02628e-01
       L  4.25279e+00  2.93927e-01 -5.26860e+00
       L  8.55876e-02 -1.57947e+00  3.93995e+00
6
# CELL(abcABC):  459.05226   459.05226   459.05226    90.00000    90.00000    90.00000  Step:          10  Bead:       0 x_centroid{angstrom}  cell{atomic_unit}
       C -3.46286e-01 -1.44737e-01  6.27432e-02
       O  8.35559e-01  2.87144e-01 -1.66310e-01
       H  4.52479e-02  8.14254e-01 -7.26952e-01
       H -3.49420e-01 -9.78248e-01  8.00867e-01
       L  4.63690e+00  3.67720e-01 -5.74063e+00
       L  1.81736e-01 -1.71499e+00  4.24302e+00
6
# CELL(abcABC):  459.05226   459.05226   459.05226    90.00000    90.00000    90.00000  Step:          11  Bead:       0 x_centroid{angstrom}  cell{atomic_unit}
       C -3.47116e-01 -1.49818e-01  6.21950e-02
       O  8.33434e-01  2.90622e-01 -1.65617e-01
       H  8.02353e-02  8.13394e-01 -7.29020e-01
       H -3.41022e-01 -9.72003e-01  7.98559e-01
       L  4.98928e+00  3.97789e-01 -6.17111e+00
       L  2.47645e-01 -1.82091e+00  4.51684e+00
6
# CELL(abcABC):  459.05226   459.05226   459.05226    90.00000    90.00000    90.00000  Step:          12  Bead:       0 x_centroid{angstrom}  cell{atomic_unit}
       C -3.48288e-01 -1.55136e-01  6.18904e-02
       O  8.31015e-01  2.94247e-01 -1.65237e-01
       H  1.23034e-01  8.13773e-01 -7.30866e-01
       H -3.31641e-01 -9.66538e-01  7.98047e-01
       L  5.25923e+00  4.54517e-01 -6.53225e+00
       L  2.95164e-01 -1.89848e+00  4.78744e+00
6
# CELL(abcABC):  459.05226   459.05226   459.05226    90.00000    90.00000    90.00000  Step:          13  Bead:       0 x_centroid{angstrom}  cell{atomic_unit}
       C -3.49730e-01 -1.61056e-01  6.16544e-02
       O  8.28191e-01  2.98189e-01 -1.65006e-01
       H  1.74548e-01  8.16608e-01 -7.32760e-01
       H -3.21285e-01 -9.61387e-01  7.99131e-01
       L  5.50974e+00  4.67603e-01 -6.82373e+00
       L  3.06855e-01 -1.94267e+00  4.99699e+00
6
# CELL(abcABC):  459.05226   459.05226   459.05226    90.00000    90.00000    90.00000  Step:          14  Bead:       0 x_centroid{angstrom}  cell{atomic_unit}
       C -3.51481e-01 -1.67255e-01  6.21013e-02
       O  8.25057e-01  3.02157e-01 -1.65155e-01
       H  2.34636e-01  8.22443e-01 -7.36189e-01
       H -3.10864e-01 -9.56343e-01  7.99640e-01
       L  5.67832e+00  4.51043e-01 -7.06655e+00
       L  3.18285e-01 -1.93911e+00  5.15329e+00
6
# CELL(abcABC):  459.05226   459.05226   459.05226    90.00000    90.00000    90.00000  Step:          15  Bead:       0 x_centroid{angstrom}  cell{atomic_unit}
       C -3.53569e-01 -1.73934e-01  6.28399e-02
       O  8.21659e-01  3.06234e-01 -1.65423e-01
       H  3.02934e-01  8.33543e-01 -7.42787e-01
       H -3.00405e-01 -9.52557e-01  8.01738e-01
       L  5.83006e+00  3.82070e-01 -7.26099e+00
       L  2.82533e-01 -1.88372e+00  5.26746e+00
6
# CELL(abcABC):  459.05226   459.05226   459.05226    90.00000    90.00000    90.00000  Step:          16  Bead:       0 x_centroid{angstrom}  cell{atomic_unit}
       C -3.55893e-01 -1.81119e-01  6.38386e-02
       O  8.18069e-01  3.10285e-01 -1.65760e-01
       H  3.76578e-01  8.51042e-01 -7.52864e-01
       H -2.89357e-01 -9.48688e-01  8.05313e-01
       L  5.89627e+00  2.69347e-01 -7.39882e+00
       L  2.20496e-01 -1.85069e+00  5.32860e+00
6
# CELL(abcABC):  459.05226   459.05226   459.05226    90.00000    90.00000    90.00000  Step:          17  Bead:       0 x_centroid{angstrom}  cell{atomic_unit}
       C -3.58589e-01 -1.88637e-01  6.52592e-02
       O  8.14565e-01  3.14206e-01 -1.66144e-01
       H  4.52715e-01  8.75832e-01 -7.69681e-01
       H -2.77737e-01 -9.46110e-01  8.11306e-01
       L  5.94205e+00  2.16113e-01 -7.45406e+00
       L  1.36340e-01 -1.86174e+00  5.35815e+00
6
# CELL(abcABC):  459.05226   459.05226   459.05226    90.00000    90.00000    90.00000  Step:          18  Bead:       0 x_centroid{angstrom}  cell{atomic_unit}
       C -3.61361e-01 -1.96231e-01  6.67197e-02
       O  8.10831e-01  3.17853e-01 -1.66332e-01
       H  5.31543e-01  9.08682e-01 -7.93601e-01
       H -2.64211e-01 -9.46350e-01  8.20769e-01
       L  5.93842e+00  1.80400e-01 -7.40508e+00
       L  3.47276e-02 -1.83679e+00  5.38886e+00
6
# CELL(abcABC):  459.05226   459.05226   459.05226    90.00000    90.00000    90.00000  Step:          19  Bead:       0 x_centroid{angstrom}  cell{atomic_unit}
       C -3.64520e-01 -2.03676e-01  6.79110e-02
       O  8.07248e-01  3.21095e-01 -1.65977e-01
       H  6.10139e-01  9.47545e-01 -8.23185e-01
       H -2.48224e-01 -9.47959e-01  8.30461e-01
       L  5.93964e+00  1.34597e-01 -7.26752e+00
       L -8.08329e-02 -1.79657e+00  5.35731e+00
6
# CELL(abcABC):  459.05226   459.05226   459.05226    90.00000    90.00000    90.00000  Step:          20  Bead:       0 x_centroid{angstrom}  cell{atomic_unit}
       C -3.67742e-01 -2.11303e-01  6.93504e-02
       O  8.03552e-01  3.24524e-01 -1.65780e-01
       H  6.90005e-01  9.87625e-01 -8.54950e-01
       H -2.30947e-01 -9.51549e-01  8.41895e-01
       L  5.86180e+00  6.95699e-02 -7.09586e+00
       L -1.40595e-01 -1.78482e+00  5.28698e+00
6
# CELL(abcABC):  459.05226   459.05226   459.05226    90.00000    90.00000    90.00000  Step:          21  Bead:       0 x_centroid{angstrom}  cell{atomic_unit}
       C -3.70963e-01 -2.18938e-01  7.04588e-02
       O  7.99581e-01  3.28191e-01 -1.65425e-01
       H  7.71292e-01  1.02576e+00 -8.86280e-01
       H -2.10774e-01 -9.56931e-01  8.54299e-01
       L  5.85336e+00  4.83876e-02 -6.86275e+00
       L -2.02885e-01 -1.72855e+00  5.20734e+00
6
# CELL(abcABC):  459.05226   459.05226   459.05226    90.00000    90.00000    90.00000  Step:          22  Bead:       0 x_centroid{angstrom}  cell{atomic_unit}
       C -3.74129e-01 -2.26505e-01  7.09510e-02
       O  7.95506e-01  3.32313e-01 -1.64959e-01
       H  8.51129e-01  1.05789e+00 -9.13386e-01
       H -1.88140e-01 -9.64354e-01  8.68046e-01
       L  5.79001e+00  1.99749e-03 -6.57901e+00
       L -2.70478e-01 -1.64005e+00  5.07846e+00
6
# CELL(abcABC):  459.05226   459.05226   459.05226    90.00000    90.00000    90.00000  Step:          23  Bead:       0 x_centroid{angstrom}  cell{atomic_unit}
       C -3.77228e-01 -2.34035e-01  7.14987e-02
       O  7.91423e-01  3.36758e-01 -1.64997e-01
       H  9.28013e-01  1.08274e+00 -9.33268e-01
       H -1.63207e-01 -9.70087e-01  8.81894e-01
       L  5.69773e+00 -7.09835e-02 -6.21310e+00
       L -3.32566e-01 -1.45919e+00  4.92679e+00
6
# CELL(abcABC):  459.05226   459.05226   459.05226    90.00000    90.00000    90.00000  Step:          24  Bead:       0 x_centroid{angstrom}  cell{atomic_unit}
       C -3.80183e-01 -2.41117e-01  7.19824e-02
       O  7.87603e-01  3.41416e-01 -1.65408e-01
       H  9.98600e-01  1.09821e+00 -9.45995e-01
       H -1.37827e-01 -9.75181e-01  8.95262e-01
       L  5.52610e+00 -1.73677e-01 -5.72518e+00
       L -3.63109e-01 -1.23851e+00  4.66682e+00
6
# CELL(abcABC):  459.05226   459.05226   459.05226    90.00000    90.00000    90.00000  Step:          25  Bead:       0 x_centroid{angstrom}  cell{atomic_unit}
       C -3.82441e-01 -2.47770e-01  7.21247e-02
       O  7.83709e-01  3.46365e-01 -1.65965e-01
       H  1.06356e+00  1.10342e+00 -9.50583e-01
       H -1.13922e-01 -9.79751e-01  9.06881e-01
       L  5.30864e+00 -2.75640e-01 -5.18611e+00
       L -4.23905e-01 -9.44655e-01  4.33173e+00
6
# CELL(abcABC):  459.05226   459.05226   459.05226    90.00000    90.00000    90.00000  Step:          26  Bead:       0 x_centroid{angstrom}  cell{atomic_unit}
       C -3.84431e-01 -2.54418e-01  7.23481e-02
       O  7.80079e-01  3.51723e-01 -1.66980e-01
       H  1.12080e+00  1.09958e+00 -9.46683e-01
       H -8.96699e-02 -9.81898e-01  9.16328e-01
       L  5.08227e+00 -3.34796e-01 -4.62844e+00
       L -4.87988e-01 -6.36856e-01  3.95049e+00
6
# CELL(abcABC):  459.05226   459.05226   459.05226    90.00000    90.00000    90.00000  Step:          27  Bead:       0 x_centroid{angstrom}  cell{atomic_unit}
       C -3.85960e-01 -2.60897e-01  7.23088e-02
       O  7.76513e-01  3.57343e-01 -1.68205e-01
       H  1.16989e+00  1.08525e+00 -9.35146e-01
       H -6.37886e-02 -9.79719e-01  9.24614e-01
       L  4.87692e+00 -3.74274e-01 -4.01802e+00
       L -5.50930e-01 -3.15487e-01  3.51929e+00
6
# CELL(abcABC):  459.05226   459.05226   459.05226    90.00000    90.00000    90.00000  Step:          28  Bead:       0 x_centroid{angstrom}  cell{atomic_unit}
       C -3.86997e-01 -2.67344e-01  7.19609e-02
       O  7.73234e-01  3.63230e-01 -1.69483e-01
       H  1.20988e+00  1.06243e+00 -9.14934e-01
       H -3.91783e-02 -9.73681e-01  9.28713e-01
       L  4.58983e+00 -4.19153e-01 -3.34965e+00
       L -6.14549e-01  1.22860e-02  3.06585e+00
6
# CELL(abcABC):  459.05226   459.05226   459.05226    90.00000    90.00000    90.00000  Step:          29  Bead:       0 x_centroid{angstrom}  cell{atomic_unit}
       C -3.87670e-01 -2.73639e-01  7.14920e-02
       O  7.70462e-01  3.69253e-01 -1.70919e-01
       H  1.23888e+00  1.03232e+00 -8.87736e-01
       H -1.59540e-02 -9.64350e-01  9.29793e-01
       L  4.27799e+00 -4.37764e-01 -2.68054e+00
       L -6.83092e-01  3.62448e-01  2.58810e+00
6
# CELL(abcABC):  459.05226   459.05226   459.05226    90.00000    90.00000    90.00000  Step:          30  Bead:       0 x_centroid{angstrom}  cell{atomic_unit}
       C -3.88123e-01 -2.79713e-01  7.09907e-02
       O  7.68129e-01  3.75417e-01 -1.72587e-01
       H  1.25937e+00  9.94605e-01 -8.53375e-01
       H  6.23292e-03 -9.52270e-01  9.27788e-01
       L  3.92295e+00 -4.42696e-01 -2.00638e+00
       L -7.74433e-01  6.91615e-01  2.09094e+00
6
# CELL(abcABC):  459.05226   459.05226   459.05226    90.00000    90.00000    90.00000  Step:          31  Bead:       0 x_centroid{angstrom}  cell{atomic_unit}
       C -3.87859e-01 -2.85722e-01  7.03495e-02
       O  7.65976e-01  3.81676e-01 -1.74199e-01
       H  1.27029e+00  9.52149e-01 -8.15513e-01
       H  2.65752e-02 -9.37715e-01  9.23091e-01
       L  3.54738e+00 -4.54529e-01 -1.34364e+00
       L -8.28959e-01  1.00786e+00  1.54827e+00
6
# CELL(abcABC):  459.05226   459.05226   459.05226    90.00000    90.00000    90.00000  Step:          32  Bead:       0 x_centroid{angstrom}  cell{atomic_unit}
       C -3.86832e-01 -2.91528e-01  6.96126e-02
       O  7.63962e-01  3.87731e-01 -1.75789e-01
       H  1.27342e+00  9.08887e-01 -7.74957e-01
       H  4.34575e-02 -9.21592e-01  9.16530e-01
       L  3.08955e+00 -4.11934e-01 -7.05986e-01
       L -8.73491e-01  1.34414e+00  9.62773e-01
6
# CELL(abcABC):  459.05226   459.05226   459.05226    90.00000    90.00000    90.00000  Step:          33  Bead:       0 x_centroid{angstrom}  cell{atomic_unit}
       C -3.85256e-01 -2.96805e-01  6.88526e-02
       O  7.62037e-01  3.93111e-01 -1.77097e-01
       H  1.27155e+00  8.68485e-01 -7.37258e-01
       H  5.73730e-02 -9.03924e-01  9.08659e-01
       L  2.65263e+00 -3.92733e-01 -1.00277e-01
       L -9.28008e-01  1.71795e+00  3.17208e-01
6
# CELL(abcABC):  459.05226   459.05226   459.05226    90.00000    90.00000    90.00000  Step:          34  Bead:       0 x_centroid{angstrom}  cell{atomic_unit}
       C -3.83033e-01 -3.01733e-01  6.81008e-02
       O  7.60006e-01  3.97811e-01 -1.77721e-01
       H  1.26852e+00  8.33871e-01 -7.09093e-01
       H  6.64058e-02 -8.85365e-01  8.99386e-01
       L  2.18814e+00 -3.91777e-01  4.86310e-01
       L -9.64240e-01  2.01115e+00 -3.14687e-01
6
# CELL(abcABC):  459.05226   459.05226   459.05226    90.00000    90.00000    90.00000  Step:          35  Bead:       0 x_centroid{angstrom}  cell{atomic_unit}
       C -3.80164e-01 -3.06451e-01  6.71056e-02
       O  7.57203e-01  4.01747e-01 -1.77270e-01
       H  1.27177e+00  8.09304e-01 -6.94981e-01
       H  7.37091e-02 -8.67203e-01  8.89990e-01
       L  1.71585e+00 -3.85791e-01  1.06303e+00
       L -9.36139e-01  2.30529e+00 -9.26849e-01
6
# CELL(abcABC):  459.05226   459.05226   459.05226    90.00000    90.00000    90.00000  Step:          36  Bead:       0 x_centroid{angstrom}  cell{atomic_unit}
       C -3.76761e-01 -3.10718e-01  6.58080e-02
       O  7.53406e-01  4.04674e-01 -1.75676e-01
       H  1.28525e+00  7.96705e-01 -6.97251e-01
       H  8.01889e-02 -8.50375e-01  8.82451e-01
       L  1.23038e+00 -3.67480e-01  1.67130e+00
       L -8.98318e-01  2.56373e+00 -1.56864e+00
6
# CELL(abcABC):  459.05226   459.05226   459.05226    90.00000    90.00000    90.00000  Step:          37  Bead:       0 x_centroid{angstrom}  cell{atomic_unit}
       C -3.72860e-01 -3.14981e-01  6.46839e-02
       O  7.48771e-01  4.07066e-01 -1.73269e-01
       H  1.30777e+00  7.92969e-01 -7.16464e-01
       H  8.50127e-02 -8.33945e-01  8.76823e-01
       L  7.13680e-01 -3.57798e-01  2.27348e+00
       L -8.50754e-01  2.80312e+00 -2.13320e+00
6
# CELL(abcABC):  459.05226   459.05226   459.05226    90.00000    90.00000    90.00000  Step:          38  Bead:       0 x_centroid{angstrom}  cell{atomic_unit}
       C -3.68663e-01 -3.18713e-01  6.32500e-02
       O  7.43748e-01  4.08794e-01 -1.70167e-01
       H  1.33566e+00  7.95512e-01 -7.46820e-01
       H  8.71055e-02 -8.19613e-01  8.75026e-01
       L  2.17012e-01 -3.22053e-01  2.81202e+00
       L -8.26318e-01  3.05757e+00 -2.65612e+00
6
# CELL(abcABC):  459.05226   459.05226   459.05226    90.00000    90.00000    90.00000  Step:          39  Bead:       0 x_centroid{angstrom}  cell{atomic_unit}
       C -3.64268e-01 -3.21918e-01  6.16341e-02
       O  7.38714e-01  4.10083e-01 -1.66746e-01
       H  1.36218e+00  8.01331e-01 -7.84746e-01
       H  8.83700e-02 -8.07847e-01  8.77859e-01
       L -2.57993e-01 -3.24996e-01  3.36939e+00
       L -7.98771e-01  3.33850e+00 -3.15359e+00
6
# CELL(abcABC):  459.05226   459.05226   459.05226    90.00000    90.00000    90.00000  Step:          40  Bead:       0 x_centroid{angstrom}  cell{atomic_unit}
       C -3.59771e-01 -3.24202e-01  5.96334e-02
       O  7.34144e-01  4.10885e-01 -1.63195e-01
       H  1.38243e+00  8.08290e-01 -8.24389e-01
       H  8.73112e-02 -8.00483e-01  8.84973e-01
       L -7.76786e-01 -3.05687e-01  3.91521e+00
       L -7.16234e-01  3.61759e+00 -3.68560e+00
6
# CELL(abcABC):  459.05226   459.05226   459.05226    90.00000    90.00000    90.00000  Step:          41  Bead:       0 x_centroid{angstrom}  cell{atomic_unit}
       C -3.54802e-01 -3.26138e-01  5.75285e-02
       O  7.29849e-01  4.11860e-01 -1.60001e-01
       H  1.39373e+00  8.11923e-01 -8.61166e-01
       H  8.51857e-02 -7.96670e-01  8.96172e-01
       L -1.25288e+00 -2.65248e-01  4.42680e+00
       L -6.15517e-01  3.85981e+00 -4.25377e+00
6
# CELL(abcABC):  459.05226   459.05226   459.05226    90.00000    90.00000    90.00000  Step:          42  Bead:       0 x_centroid{angstrom}  cell{atomic_unit}
       C -3.49589e-01 -3.27909e-01  5.49293e-02
       O  7.26094e-01  4.13082e-01 -1.57002e-01
       H  1.39574e+00  8.11098e-01 -8.93283e-01
       H  8.08546e-02 -7.94285e-01  9.11646e-01
       L -1.72077e+00 -1.76487e-01  4.91962e+00
       L -5.31451e-01  4.03989e+00 -4.74405e+00
6
# CELL(abcABC):  459.05226   459.05226   459.05226    90.00000    90.00000    90.00000  Step:          43  Bead:       0 x_centroid{angstrom}  cell{atomic_unit}
       C -3.44304e-01 -3.29446e-01  5.21825e-02
       O  7.23136e-01  4.14566e-01 -1.54500e-01
       H  1.38580e+00  8.05570e-01 -9.18092e-01
       H  7.49479e-02 -7.94120e-01  9.29475e-01
       L -2.17441e+00 -1.02884e-01  5.36582e+00
       L -3.85273e-01  4.19087e+00 -5.20225e+00
6
# CELL(abcABC):  459.05226   459.05226   459.05226    90.00000    90.00000    90.00000  Step:          44  Bead:       0 x_centroid{angstrom}  cell{atomic_unit}
       C -3.38670e-01 -3.30934e-01  4.91550e-02
       O  7.20770e-01  4.16311e-01 -1.52375e-01
       H  1.36405e+00  7.96720e-01 -9.36087e-01
       H  6.72661e-02 -7.95358e-01  9.49845e-01
       L -2.60578e+00  2.36638e-02  5.75428e+00
       L -2.30469e-01  4.28024e+00 -5.62021e+00
6
# CELL(abcABC):  459.05226   459.05226   459.05226    90.00000    90.00000    90.00000  Step:          45  Bead:       0 x_centroid{angstrom}  cell{atomic_unit}
       C -3.32905e-01 -3.32651e-01  4.58741e-02
       O  7.19132e-01  4.18524e-01 -1.50605e-01
       H  1.33068e+00  7.84862e-01 -9.47129e-01
       H  5.80492e-02 -7.98278e-01  9.71900e-01
       L -2.99114e+00  1.97194e-01  6.07628e+00
       L -4.72792e-02  4.30612e+00 -5.97568e+00
6
# CELL(abcABC):  459.05226   459.05226   459.05226    90.00000    90.00000    90.00000  Step:          46  Bead:       0 x_centroid{angstrom}  cell{atomic_unit}
       C -3.27162e-01 -3.34538e-01  4.23357e-02
       O  7.18485e-01  4.21083e-01 -1.49204e-01
       H  1.28595e+00  7.69810e-01 -9.50297e-01
       H  4.47101e-02 -8.01425e-01  9.95026e-01
       L -3.35423e+00  3.42619e-01  6.33238e+00
       L  1.47849e-01  4.27283e+00 -6.29107e+00
6
# CELL(abcABC):  459.05226   459.05226   459.05226    90.00000    90.00000    90.00000  Step:          47  Bead:       0 x_centroid{angstrom}  cell{atomic_unit}
       C -3.21115e-01 -3.36377e-01  3.86228e-02
       O  7.18443e-01  4.23706e-01 -1.47928e-01
       H  1.23119e+00  7.51420e-01 -9.49216e-01
       H  2.81661e-02 -8.02806e-01  1.01798e+00
       L -3.72432e+00  5.28192e-01  6.51540e+00
       L  3.50025e-01  4.19556e+00 -6.55392e+00
6
# CELL(abcABC):  459.05226   459.05226   459.05226    90.00000    90.00000    90.00000  Step:          48  Bead:       0 x_centroid{angstrom}  cell{atomic_unit}
       C -3.15017e-01 -3.38492e-01  3.46482e-02
       O  7.18914e-01  4.26521e-01 -1.46453e-01
       H  1.17039e+00  7.31851e-01 -9.45290e-01
       H  8.94895e-03 -8.02752e-01  1.03804e+00
       L -4.08265e+00  7.11286e-01  6.69339e+00
       L  4.97399e-01  4.07404e+00 -6.80731e+00
6
# CELL(abcABC):  459.05226   459.05226   459.05226    90.00000    90.00000    90.00000  Step:          49  Bead:       0 x_centroid{angstrom}  cell{atomic_unit}
       C -3.08768e-01 -3.40926e-01  3.07454e-02
       O  7.19731e-01  4.29475e-01 -1.45044e-01
       H  1.10404e+00  7.12345e-01 -9.39761e-01
       H -1.20582e-02 -8.01152e-01  1.05668e+00
       L -4.37788e+00  9.07648e-01  6.77790e+00
       L  6.47365e-01  3.91500e+00 -6.95518e+00
6
# CELL(abcABC):  459.05226   459.05226   459.05226    90.00000    90.00000    90.00000  Step:          50  Bead:       0 x_centroid{angstrom}  cell{atomic_unit}
       C -3.02368e-01 -3.43618e-01  2.69916e-02
       O  7.20856e-01  4.32289e-01 -1.43292e-01
       H  1.03484e+00  6.94839e-01 -9.39137e-01
       H -3.69341e-02 -7.96253e-01  1.07300e+00
       L -4.61516e+00  1.13305e+00  6.78226e+00
       L  7.99377e-01  3.71639e+00 -7.00562e+00
6
# CELL(abcABC):  459.05226   459.05226   459.05226    90.00000    90.00000    90.00000  Step:          51  Bead:       0 x_centroid{angstrom}  cell{atomic_unit}
       C -2.96056e-01 -3.46638e-01  2.34120e-02
       O  7.22070e-01  4.34907e-01 -1.40887e-01
       H  9.65672e-01  6.80737e-01 -9.48181e-01
       H -6.22220e-02 -7.87738e-01  1.08653e+00
       L -4.80529e+00  1.33752e+00  6.75636e+00
       L  9.39525e-01  3.52191e+00 -6.99653e+00
6
# CELL(abcABC):  459.05226   459.05226   459.05226    90.00000    90.00000    90.00000  Step:          52  Bead:       0 x_centroid{angstrom}  cell{atomic_unit}
       C -2.89632e-01 -3.50013e-01  1.98249e-02
       O  7.23314e-01  4.37471e-01 -1.37441e-01
       H  8.97401e-01  6.69797e-01 -9.69479e-01
       H -9.02600e-02 -7.77255e-01  1.09596e+00
       L -4.91972e+00  1.56005e+00  6.60819e+00
       L  1.07611e+00  3.25880e+00 -6.98789e+00
6
# CELL(abcABC):  459.05226   459.05226   459.05226    90.00000    90.00000    90.00000  Step:          53  Bead:       0 x_centroid{angstrom}  cell{atomic_unit}
       C -2.83445e-01 -3.53689e-01  1.66850e-02
       O  7.24767e-01  4.39902e-01 -1.33410e-01
       H  8.29844e-01  6.62739e-01 -1.00250e+00
       H -1.19523e-01 -7.64936e-01  1.10244e+00
       L -5.00020e+00  1.76818e+00  6.39803e+00
       L  1.22979e+00  2.97781e+00 -6.84525e+00
6
# CELL(abcABC):  459.05226   459.05226   459.05226    90.00000    90.00000    90.00000  Step:          54  Bead:       0 x_centroid{angstrom}  cell{atomic_unit}
       C -2.77333e-01 -3.57911e-01  1.40154e-02
       O  7.26382e-01  4.42411e-01 -1.29050e-01
       H  7.62169e-01  6.58318e-01 -1.04279e+00
       H -1.50342e-01 -7.49932e-01  1.10539e+00
       L -5.05271e+00  1.91588e+00  6.11762e+00
       L  1.31979e+00  2.64483e+00 -6.66998e+00
6
# CELL(abcABC):  459.05226   459.05226   459.05226    90.00000    90.00000    90.00000  Step:          55  Bead:       0 x_centroid{angstrom}  cell{atomic_unit}
       C -2.71221e-01 -3.62310e-01  1.16952e-02
       O  7.28017e-01  4.44825e-01 -1.24708e-01
       H  6.93527e-01  6.54678e-01 -1.08348e+00
       H -1.80521e-01 -7.32044e-01  1.10489e+00
       L -5.05602e+00  2.04052e+00  5.78290e+00
       L  1.39860e+00  2.25864e+00 -6.45828e+00
6
# CELL(abcABC):  459.05226   459.05226   459.05226    90.00000    90.00000    90.00000  Step:          56  Bead:       0 x_centroid{angstrom}  cell{atomic_unit}
       C -2.65264e-01 -3.66978e-01  9.76416e-03
       O  7.29576e-01  4.47238e-01 -1.20754e-01
       H  6.26951e-01  6.52568e-01 -1.12035e+00
       H -2.09678e-01 -7.12446e-01  1.10202e+00
       L -5.03643e+00  2.11123e+00  5.42272e+00
       L  1.38556e+00  1.86421e+00 -6.14779e+00
6
# CELL(abcABC):  459.05226   459.05226   459.05226    90.00000    90.00000    90.00000  Step:          57  Bead:       0 x_centroid{angstrom}  cell{atomic_unit}
       C -2.59568e-01 -3.71521e-01  8.48185e-03
       O  7.31131e-01  4.49536e-01 -1.17649e-01
       H  5.62583e-01  6.51279e-01 -1.14885e+00
       H -2.37883e-01 -6.93348e-01  1.09651e+00
       L -4.96689e+00  2.19579e+00  5.00235e+00
       L  1.33181e+00  1.50345e+00 -5.73930e+00
6
# CELL(abcABC):  459.05226   459.05226   459.05226    90.00000    90.00000    90.00000  Step:          58  Bead:       0 x_centroid{angstrom}  cell{atomic_unit}
       C -2.53743e-01 -3.76295e-01  7.07457e-03
       O  7.32272e-01  4.51967e-01 -1.15049e-01
       H  5.02791e-01  6.50078e-01 -1.16632e+00
       H -2.65623e-01 -6.73628e-01  1.08952e+00
       L -4.87219e+00  2.21204e+00  4.56971e+00
       L  1.26333e+00  1.10545e+00 -5.35831e+00
6
# CELL(abcABC):  459.05226   459.05226   459.05226    90.00000    90.00000    90.00000  Step:          59  Bead:       0 x_centroid{angstrom}  cell{atomic_unit}
       C -2.48094e-01 -3.81133e-01  6.14413e-03
       O  7.33103e-01  4.54578e-01 -1.13297e-01
       H  4.48489e-01  6.47916e-01 -1.17369e+00
       H -2.91872e-01 -6.55077e-01  1.08016e+00
       L -4.72556e+00  2.25761e+00  4.11006e+00
       L  1.20411e+00  7.25423e-01 -4.88299e+00
6
# CELL(abcABC):  459.05226   459.05226   459.05226    90.00000    90.00000    90.00000  Step:          60  Bead:       0 x_centroid{angstrom}  cell{atomic_unit}
       C -2.42577e-01 -3.85973e-01  5.66302e-03
       O  7.33603e-01  4.57143e-01 -1.12560e-01
       H  4.00024e-01  6.46535e-01 -1.16862e+00
       H -3.17122e-01 -6.36547e-01  1.06908e+00
       L -4.53467e+00  2.29278e+00  3.65148e+00
       L  1.07732e+00  3.17836e-01 -4.36710e+00
6
# CELL(abcABC):  459.05226   459.05226   459.05226    90.00000    90.00000    90.00000  Step:          61  Bead:       0 x_centroid{angstrom}  cell{atomic_unit}
       C -2.37057e-01 -3.90981e-01  5.20800e-03
       O  7.33639e-01  4.59872e-01 -1.12671e-01
       H  3.58483e-01  6.46030e-01 -1.15180e+00
       H -3.41994e-01 -6.19472e-01  1.05941e+00
       L -4.28103e+00  2.31367e+00  3.15582e+00
       L  9.38092e-01 -9.76697e-02 -3.78697e+00
6
# CELL(abcABC):  459.05226   459.05226   459.05226    90.00000    90.00000    90.00000  Step:          62  Bead:       0 x_centroid{angstrom}  cell{atomic_unit}
       C -2.31740e-01 -3.96275e-01  5.09334e-03
       O  7.33220e-01  4.62727e-01 -1.13718e-01
       H  3.25504e-01  6.47236e-01 -1.12429e+00
       H -3.65797e-01 -6.02641e-01  1.04981e+00
       L -3.98035e+00  2.24126e+00  2.61775e+00
       L  7.68308e-01 -5.25656e-01 -3.13454e+00
6
# CELL(abcABC):  459.05226   459.05226   459.05226    90.00000    90.00000    90.00000  Step:          63  Bead:       0 x_centroid{angstrom}  cell{atomic_unit}
       C -2.26528e-01 -4.01721e-01  4.79923e-03
       O  7.32245e-01  4.65784e-01 -1.15475e-01
       H  3.01405e-01  6.49552e-01 -1.08649e+00
       H -3.88394e-01 -5.88295e-01  1.04332e+00
       L -3.68413e+00  2.19964e+00  2.08141e+00
       L  5.91704e-01 -1.00760e+00 -2.42158e+00
6
# CELL(abcABC):  459.05226   459.05226   459.05226    90.00000    90.00000    90.00000  Step:          64  Bead:       0 x_centroid{angstrom}  cell{atomic_unit}
       C -2.21303e-01 -4.07136e-01  4.56138e-03
       O  7.30546e-01  4.68877e-01 -1.18006e-01
       H  2.85815e-01  6.51409e-01 -1.04000e+00
       H -4.08195e-01 -5.74467e-01  1.03974e+00
       L -3.33995e+00  2.16855e+00  1.47311e+00
       L  4.46603e-01 -1.46135e+00 -1.63011e+00
6
# CELL(abcABC):  459.05226   459.05226   459.05226    90.00000    90.00000    90.00000  Step:          65  Bead:       0 x_centroid{angstrom}  cell{atomic_unit}
       C -2.16327e-01 -4.12546e-01  4.54679e-03
       O  7.28436e-01  4.71939e-01 -1.21232e-01
       H  2.78760e-01  6.54875e-01 -9.88780e-01
       H -4.27075e-01 -5.61809e-01  1.03979e+00
       L -2.91833e+00  2.11523e+00  8.29058e-01
       L  2.66365e-01 -1.88472e+00 -7.85660e-01
6
# CELL(abcABC):  459.05226   459.05226   459.05226    90.00000    90.00000    90.00000  Step:          66  Bead:       0 x_centroid{angstrom}  cell{atomic_unit}
       C -2.11453e-01 -4.18202e-01  4.55283e-03