6
# CELL(abcABC):  459.05226   459.05226   459.05226    90.00000    90.00000    90.00000  Step:           0  Bead:       0 x_centroid{angstrom}  cell{atomic_unit}
       C -3.39887e-01 -1.13437e-01  8.06659e-02
       O  8.43483e-01  2.62672e-01 -1.81512e-01
       H -7.35799e-02  8.16467e-01 -6.61432e-01
       H -4.30016e-01 -9.65701e-01  7.62278e-01
       L  0.00000e+00  0.00000e+00  0.00000e+00
       L  0.00000e+00  0.00000e+00  0.00000e+00
6
# CELL(abcABC):  459.05226   459.05226   459.05226    90.00000    90.00000    90.00000  Step:           1  Bead:       0 x_centroid{angstrom}  cell{atomic_unit}
       C -3.39628e-01 -1.10489e-01  8.26274e-02
       O  8.42557e-01  2.61765e-01 -1.82775e-01
       H -6.41115e-02  8.17579e-01 -6.64834e-01
       H -4.27733e-01 -9.87623e-01  7.61614e-01
       L -1.57676e-01  6.35655e-02  6.99230e-01
       L -8.54561e-02  7.03526e-02  6.51282e-01
6
# CELL(abcABC):  459.05226   459.05226   459.05226    90.00000    90.00000    90.00000  Step:           2  Bead:       0 x_centroid{angstrom}  cell{atomic_unit}
       C -3.39039e-01 -1.07501e-01  8.47996e-02
       O  8.41323e-01  2.60890e-01 -1.84165e-01
       H -5.38883e-02  8.16092e-01 -6.68065e-01
       H -4.25290e-01 -1.00791e+00  7.60243e-01
       L -2.87764e-01  1.49843e-01  1.45899e+00
       L -1.32558e-01  8.06909e-02  1.31322e+00
6
# CELL(abcABC):  459.05226   459.05226   459.05226    90.00000    90.00000    90.00000  Step:           3  Bead:       0 x_centroid{angstrom}  cell{atomic_unit}
       C -3.38477e-01 -1.04640e-01  8.71507e-02
       O  8.40035e-01  2.60039e-01 -1.85522e-01
       H -4.27318e-02  8.14217e-01 -6.72418e-01
       H -4.22640e-01 -1.02667e+00  7.57377e-01
       L -4.08431e-01  2.42216e-01  2.16835e+00
       L -1.14285e-01  1.06108e-01  1.98224e+00
6
# CELL(abcABC):  459.05226   459.05226   459.05226    90.00000    90.00000    90.00000  Step:           4  Bead:       0 x_centroid{angstrom}  cell{atomic_unit}
       C -3.38011e-01 -1.02360e-01  8.97691e-02
       O  8.38593e-01  2.59341e-01 -1.86977e-01
       H -2.82861e-02  8.11917e-01 -6.76621e-01
       H -4.19699e-01 -1.04054e+00  7.52758e-01
       L -5.64579e-01  3.34007e-01  2.81370e+00
       L -7.86506e-02  1.33643e-01  2.65929e+00
6
# CELL(abcABC):  459.05226   459.05226   459.05226    90.00000    90.00000    90.00000  Step:           5  Bead:       0 x_centroid{angstrom}  cell{atomic_unit}
       C -3.38089e-01 -1.00300e-01  9.26884e-02
       O  8.37386e-01  2.58521e-01 -1.88422e-01
       H -1.11784e-02  8.10078e-01 -6.81945e-01
       H -4.16661e-01 -1.05028e+00  7.45580e-01
       L -6.94730e-01  4.74776e-01  3.39775e+00
       L -4.00937e-02  9.05022e-02  3.28245e+00
6
# CELL(abcABC):  459.05226   459.05226   459.05226    90.00000    90.00000    90.00000  Step:           6  Bead:       0 x_centroid{angstrom}  cell{atomic_unit}
       C -3.38587e-01 -9.84824e-02  9.55783e-02
       O  8.36191e-01  2.57608e-01 -1.89827e-01
       H  9.72880e-03  8.09862e-01 -6.86242e-01
       H -4.12625e-01 -1.05731e+00  7.37169e-01
       L -8.45843e-01  6.47234e-01  3.88692e+00
       L  3.41958e-02  6.80220e-02  3.82119e+00
6
# CELL(abcABC):  459.05226   459.05226   459.05226    90.00000    90.00000    90.00000  Step:           7  Bead:       0 x_centroid{angstrom}  cell{atomic_unit}
       C -3.39697e-01 -9.70957e-02  9.92786e-02
       O  8.35247e-01  2.56720e-01 -1.91558e-01
       H  3.41079e-02  8.10130e-01 -6.91510e-01
       H -4.08741e-01 -1.06006e+00  7.25284e-01
       L -9.47698e-01  8.07584e-01  4.38012e+00
       L  4.39549e-02 -2.20049e-04  4.31770e+00
6
# CELL(abcABC):  459.05226   459.05226   459.05226    90.00000    90.00000    90.00000  Step:           8  Bead:       0 x_centroid{angstrom}  cell{atomic_unit}
       C -3.40940e-01 -9.62611e-02  1.03210e-01
       O  8.34018e-01  2.55905e-01 -1.93398e-01
       H  6.40066e-02  8.13344e-01 -6.96757e-01
       H -4.04320e-01 -1.06036e+00  7.12395e-01
       L -9.45312e-01  1.01544e+00  4.85364e+00
       L  5.89479e-02 -5.83831e-02  4.76196e+00
6
# CELL(abcABC):  459.05226   459.05226   459.05226    90.00000    90.00000    90.00000  Step:           9  Bead:       0 x_centroid{angstrom}  cell{atomic_unit}
       C -3.42742e-01 -9.61288e-02  1.07580e-01
       O  8.32570e-01  2.55217e-01 -1.95533e-01
       H  1.02053e-01  8.19429e-01 -7.02240e-01
       H -3.97949e-01 -1.05714e+00  6.99262e-01
       L -9.48487e-01  1.13341e+00  5.28485e+00
       L  1.14678e-01 -1.25848e-01  5.13372e+00
6
# CELL(abcABC):  459.05226   459.05226   459.05226    90.00000    90.00000    90.00000  Step:          10  Bead:       0 x_centroid{angstrom}  cell{atomic_unit}
       C -3.45436e-01 -9.65748e-02  1.12385e-01
       O  8.31246e-01  2.54690e-01 -1.97975e-01
       H  1.47320e-01  8.27497e-01 -7.08385e-01
       H -3.90064e-01 -1.05156e+00  6.86509e-01
       L -1.01428e+00  1.25692e+00  5.68838e+00
       L  1.10760e-01 -1.67036e-01  5.44218e+00
6
# CELL(abcABC):  459.05226   459.05226   459.05226    90.00000    90.00000    90.00000  Step:          11  Bead:       0 x_centroid{angstrom}  cell{atomic_unit}
       C -3.48690e-01 -9.76830e-02  1.17498e-01
       O  8.29712e-01  2.54476e-01 -2.00473e-01
       H  2.00791e-01  8.37344e-01 -7.16235e-01
       H -3.80416e-01 -1.04485e+00  6.72728e-01
       L -1.02481e+00  1.40526e+00  6.08756e+00
       L  1.42907e-01 -2.17734e-01  5.73161e+00
6
# CELL(abcABC):  459.05226   459.05226   459.05226    90.00000    90.00000    90.00000  Step:          12  Bead:       0 x_centroid{angstrom}  cell{atomic_unit}
       C -3.52422e-01 -9.91101e-02  1.23104e-01
       O  8.27927e-01  2.54360e-01 -2.03419e-01
       H  2.62986e-01  8.50372e-01 -7.24705e-01
       H -3.69798e-01 -1.03912e+00  6.60861e-01
       L -1.02981e+00  1.58805e+00  6.41615e+00
       L  1.45208e-01 -2.51356e-01  5.93493e+00
6
# CELL(abcABC):  459.05226   459.05226   459.05226    90.00000    90.00000    90.00000  Step:          13  Bead:       0 x_centroid{angstrom}  cell{atomic_unit}
       C -3.57079e-01 -1.01122e-01  1.29025e-01
       O  8.26356e-01  2.54507e-01 -2.06572e-01
       H  3.32018e-01  8.66977e-01 -7.35449e-01
       H -3.58438e-01 -1.03418e+00  6.50914e-01
       L -1.02805e+00  1.83856e+00  6.61062e+00
       L  2.07563e-01 -3.36186e-01  6.09396e+00
6
# CELL(abcABC):  459.05226   459.05226   459.05226    90.00000    90.00000    90.00000  Step:          14  Bead:       0 x_centroid{angstrom}  cell{atomic_unit}
       C -3.61963e-01 -1.03685e-01  1.35433e-01
       O  8.24437e-01  2.54875e-01 -2.10097e-01
       H  4.07236e-01  8.88547e-01 -7.48575e-01
       H -3.45063e-01 -1.03115e+00  6.43546e-01
       L -9.97353e-01  2.07644e+00  6.70298e+00
       L  2.81818e-01 -4.10009e-01  6.15326e+00
6
# CELL(abcABC):  459.05226   459.05226   459.05226    90.00000    90.00000    90.00000  Step:          15  Bead:       0 x_centroid{angstrom}  cell{atomic_unit}
       C -3.66902e-01 -1.06240e-01  1.41444e-01
       O  8.22304e-01  2.55130e-01 -2.13397e-01
       H  4.85026e-01  9.14862e-01 -7.63254e-01
       H -3.30252e-01 -1.03109e+00  6.38913e-01
       L -9.33796e-01  2.29639e+00  6.81728e+00
       L  4.27666e-01 -5.54549e-01  6.14798e+00
6
# CELL(abcABC):  459.05226   459.05226   459.05226    90.00000    90.00000    90.00000  Step:          16  Bead:       0 x_centroid{angstrom}  cell{atomic_unit}
       C -3.72090e-01 -1.08964e-01  1.47335e-01
       O  8.20053e-01  2.55453e-01 -2.16516e-01
       H  5.65368e-01  9.45920e-01 -7.81929e-01
       H -3.13161e-01 -1.03486e+00  6.36932e-01
       L -8.51976e-01  2.48439e+00  6.83395e+00
       L  5.58922e-01 -6.84216e-01  6.07906e+00
6
# CELL(abcABC):  459.05226   459.05226   459.05226    90.00000    90.00000    90.00000  Step:          17  Bead:       0 x_centroid{angstrom}  cell{atomic_unit}
       C -3.77446e-01 -1.10970e-01  1.53103e-01
       O  8.17685e-01  2.55216e-01 -2.19611e-01
       H  6.46547e-01  9.80580e-01 -8.02412e-01
       H -2.93072e-01 -1.04184e+00  6.37933e-01
       L -7.40049e-01  2.64445e+00  6.75643e+00
       L  7.06052e-01 -8.49956e-01  5.94965e+00
6
# CELL(abcABC):  459.05226   459.05226   459.05226    90.00000    90.00000    90.00000  Step:          18  Bead:       0 x_centroid{angstrom}  cell{atomic_unit}
       C -3.83070e-01 -1.12356e-01  1.58617e-01
       O  8.15373e-01  2.54756e-01 -2.22761e-01
       H  7.28062e-01  1.01511e+00 -8.23330e-01
       H -2.71023e-01 -1.05254e+00  6.43328e-01
       L -5.89071e-01  2.78613e+00  6.59435e+00
       L  8.55524e-01 -1.02570e+00  5.77018e+00
6
# CELL(abcABC):  459.05226   459.05226   459.05226    90.00000    90.00000    90.00000  Step:          19  Bead:       0 x_centroid{angstrom}  cell{atomic_unit}
       C -3.88694e-01 -1.13695e-01  1.63575e-01
       O  8.13010e-01  2.54427e-01 -2.25754e-01
       H  8.10060e-01  1.04946e+00 -8.41955e-01
       H -2.48672e-01 -1.06565e+00  6.50603e-01
       L -3.98023e-01  2.85020e+00  6.37382e+00
       L  9.85106e-01 -1.20030e+00  5.59490e+00
6
# CELL(abcABC):  459.05226   459.05226   459.05226    90.00000    90.00000    90.00000  Step:          20  Bead:       0 x_centroid{angstrom}  cell{atomic_unit}
       C -3.94463e-01 -1.14383e-01  1.68339e-01
       O  8.10824e-01  2.53962e-01 -2.29059e-01
       H  8.90749e-01  1.07948e+00 -8.55114e-01
       H -2.26134e-01 -1.08001e+00  6.59736e-01
       L -2.11617e-01  2.85810e+00  6.11508e+00
       L  1.18889e+00 -1.35454e+00  5.33499e+00
6
# CELL(abcABC):  459.05226   459.05226   459.05226    90.00000    90.00000    90.00000  Step:          21  Bead:       0 x_centroid{angstrom}  cell{atomic_unit}
       C -3.99830e-01 -1.15101e-01  1.72700e-01
       O  8.08449e-01  2.53974e-01 -2.32366e-01
       H  9.68362e-01  1.10297e+00 -8.62553e-01
       H -2.02328e-01 -1.09503e+00  6.68031e-01
       L  1.62068e-04  2.85500e+00  5.82934e+00
       L  1.39193e+00 -1.52836e+00  5.00724e+00
6
# CELL(abcABC):  459.05226   459.05226   459.05226    90.00000    90.00000    90.00000  Step:          22  Bead:       0 x_centroid{angstrom}  cell{atomic_unit}
       C -4.05260e-01 -1.15793e-01  1.76739e-01
       O  8.06301e-01  2.54477e-01 -2.35903e-01
       H  1.04296e+00  1.11742e+00 -8.63142e-01
       H -1.78348e-01 -1.10913e+00  6.77031e-01
       L  2.86465e-01  2.84858e+00  5.49007e+00
       L  1.54919e+00 -1.70656e+00  4.62665e+00
6
# CELL(abcABC):  459.05226   459.05226   459.05226    90.00000    90.00000    90.00000  Step:          23  Bead:       0 x_centroid{angstrom}  cell{atomic_unit}
       C -4.10297e-01 -1.16227e-01  1.81013e-01
       O  8.04388e-01  2.55094e-01 -2.40058e-01
       H  1.10969e+00  1.12389e+00 -8.55692e-01
       H -1.54909e-01 -1.12011e+00  6.85085e-01
       L  5.41169e-01  2.83938e+00  5.10019e+00
       L  1.68422e+00 -1.88200e+00  4.14139e+00
6
# CELL(abcABC):  459.05226   459.05226   459.05226    90.00000    90.00000    90.00000  Step:          24  Bead:       0 x_centroid{angstrom}  cell{atomic_unit}
       C -4.15074e-01 -1.16549e-01  1.85005e-01
       O  8.02756e-01  2.55947e-01 -2.44406e-01
       H  1.16990e+00  1.12109e+00 -8.41607e-01
       H -1.32481e-01 -1.12692e+00  6.92977e-01
       L  7.76895e-01  2.78775e+00  4.67040e+00
       L  1.79735e+00 -2.02947e+00  3.60199e+00
6
# CELL(abcABC):  459.05226   459.05226   459.05226    90.00000    90.00000    90.00000  Step:          25  Bead:       0 x_centroid{angstrom}  cell{atomic_unit}
       C -4.19441e-01 -1.16676e-01  1.88797e-01
       O  8.01603e-01  2.56958e-01 -2.48921e-01
       H  1.21947e+00  1.10966e+00 -8.21092e-01
       H -1.11897e-01 -1.12994e+00  6.99530e-01
       L  1.06574e+00  2.78316e+00  4.16079e+00
       L  1.84750e+00 -2.17543e+00  3.02970e+00
6
# CELL(abcABC):  459.05226   459.05226   459.05226    90.00000    90.00000    90.00000  Step:          26  Bead:       0 x_centroid{angstrom}  cell{atomic_unit}
       C -4.23206e-01 -1.16817e-01  1.92342e-01
       O  8.00681e-01  2.58138e-01 -2.53571e-01
       H  1.25939e+00  1.09058e+00 -7.94260e-01
       H -9.25130e-02 -1.12782e+00  7.04881e-01
       L  1.37677e+00  2.74110e+00  3.66811e+00
       L  1.88914e+00 -2.28708e+00  2.38988e+00
6
# CELL(abcABC):  459.05226   459.05226   459.05226    90.00000    90.00000    90.00000  Step:          27  Bead:       0 x_centroid{angstrom}  cell{atomic_unit}
       C -4.26590e-01 -1.16866e-01  1.95642e-01
       O  8.00226e-01  2.59587e-01 -2.58266e-01
       H  1.28871e+00  1.06243e+00 -7.60866e-01
       H -7.44532e-02 -1.12203e+00  7.07332e-01
       L  1.67359e+00  2.67931e+00  3.14803e+00
       L  1.89559e+00 -2.34131e+00  1.73320e+00
6
# CELL(abcABC):  459.05226   459.05226   459.05226    90.00000    90.00000    90.00000  Step:          28  Bead:       0 x_centroid{angstrom}  cell{atomic_unit}
       C -4.29414e-01 -1.16977e-01  1.98752e-01
       O  8.00075e-01  2.61325e-01 -2.63025e-01
       H  1.30857e+00  1.02663e+00 -7.22835e-01
       H -5.83864e-02 -1.11244e+00  7.08429e-01
       L  1.92270e+00  2.61160e+00  2.58288e+00
       L  1.87885e+00 -2.38820e+00  1.09519e+00
6
# CELL(abcABC):  459.05226   459.05226   459.05226    90.00000    90.00000    90.00000  Step:          29  Bead:       0 x_centroid{angstrom}  cell{atomic_unit}
       C -4.31614e-01 -1.17138e-01  2.01981e-01
       O  8.00282e-01  2.63191e-01 -2.67985e-01
       H  1.31871e+00  9.86410e-01 -6.81186e-01
       H -4.57003e-02 -1.09990e+00  7.07753e-01
       L  2.17280e+00  2.58087e+00  1.97099e+00
       L  1.81817e+00 -2.36347e+00  4.10527e-01
6
# CELL(abcABC):  459.05226   459.05226   459.05226    90.00000    90.00000    90.00000  Step:          30  Bead:       0 x_centroid{angstrom}  cell{atomic_unit}
       C -4.33110e-01 -1.17089e-01  2.04938e-01
       O  8.00489e-01  2.64742e-01 -2.72717e-01
       H  1.32227e+00  9.45837e-01 -6.38524e-01
       H -3.48354e-02 -1.08449e+00  7.05668e-01
       L  2.43562e+00  2.47716e+00  1.33669e+00
       L  1.76733e+00 -2.32400e+00 -2.59214e-01
6
# CELL(abcABC):  459.05226   459.05226   459.05226    90.00000    90.00000    90.00000  Step:          31  Bead:       0 x_centroid{angstrom}  cell{atomic_unit}
       C -4.34169e-01 -1.16922e-01  2.07697e-01
       O  8.00747e-01  2.65785e-01 -2.77159e-01
       H  1.32307e+00  9.09535e-01 -5.96496e-01
       H -2.72057e-02 -1.06667e+00  7.02026e-01
       L  2.66752e+00  2.32003e+00  6.68146e-01
       L  1.70829e+00 -2.28996e+00 -9.66914e-01
6
# CELL(abcABC):  459.05226   459.05226   459.05226    90.00000    90.00000    90.00000  Step:          32  Bead:       0 x_centroid{angstrom}  cell{atomic_unit}
       C -4.34308e-01 -1.17124e-01  2.10155e-01
       O  8.00413e-01  2.66302e-01 -2.81064e-01
       H  1.32560e+00  8.83186e-01 -5.58303e-01
       H -2.28700e-02 -1.04605e+00  6.97272e-01
       L  2.89312e+00  2.12948e+00  2.06670e-02
       L  1.64317e+00 -2.23573e+00 -1.70526e+00
6
# CELL(abcABC):  459.05226   459.05226   459.05226    90.00000    90.00000    90.00000  Step:          33  Bead:       0 x_centroid{angstrom}  cell{atomic_unit}
       C -4.33767e-01 -1.17173e-01  2.12730e-01
       O  7.99337e-01  2.65694e-01 -2.84610e-01
       H  1.33459e+00  8.71386e-01 -5.25813e-01
       H -2.13188e-02 -1.02399e+00  6.91176e-01
       L  3.10149e+00  1.95886e+00 -6.68342e-01
       L  1.59969e+00 -2.11664e+00 -2.45122e+00
6
# CELL(abcABC):  459.05226   459.05226   459.05226    90.00000    90.00000    90.00000  Step:          34  Bead:       0 x_centroid{angstrom}  cell{atomic_unit}
       C -4.32637e-01 -1.16751e-01  2.15153e-01
       O  7.97375e-01  2.63619e-01 -2.87632e-01
       H  1.35341e+00  8.76575e-01 -5.00094e-01
       H -2.25064e-02 -1.00126e+00  6.85330e-01
       L  3.27291e+00  1.80084e+00 -1.37147e+00
       L  1.53637e+00 -1.98293e+00 -3.18689e+00
6
# CELL(abcABC):  459.05226   459.05226   459.05226    90.00000    90.00000    90.00000  Step:          35  Bead:       0 x_centroid{angstrom}  cell{atomic_unit}
       C -4.30904e-01 -1.16348e-01  2.17276e-01
       O  7.94695e-01  2.60649e-01 -2.90109e-01
       H  1.37940e+00  8.97716e-01 -4.78227e-01
       H -2.66739e-02 -9.80033e-01  6.78298e-01
       L  3.44622e+00  1.58541e+00 -2.11934e+00
       L  1.49919e+00 -1.83959e+00 -3.92063e+00
6
# CELL(abcABC):  459.05226   459.05226   459.05226    90.00000    90.00000    90.00000  Step:          36  Bead:       0 x_centroid{angstrom}  cell{atomic_unit}
       C -4.28447e-01 -1.15284e-01  2.18905e-01
       O  7.91337e-01  2.56863e-01 -2.92224e-01
       H  1.40920e+00  9.29227e-01 -4.58126e-01
       H -3.25317e-02 -9.64072e-01  6.73125e-01
       L  3.62054e+00  1.36587e+00 -2.84535e+00
       L  1.45690e+00 -1.69535e+00 -4.61510e+00
6
# CELL(abcABC):  459.05226   459.05226   459.05226    90.00000    90.00000    90.00000  Step:          37  Bead:       0 x_centroid{angstrom}  cell{atomic_unit}
       C -4.25575e-01 -1.13262e-01  2.20340e-01
       O  7.87923e-01  2.52507e-01 -2.94335e-01
       H  1.43652e+00  9.63945e-01 -4.37854e-01
       H -3.99395e-02 -9.53690e-01  6.70021e-01
       L  3.74745e+00  1.13924e+00 -3.54005e+00
       L  1.43106e+00 -1.57322e+00 -5.30028e+00
6
# CELL(abcABC):  459.05226   459.05226   459.05226    90.00000    90.00000    90.00000  Step:          38  Bead:       0 x_centroid{angstrom}  cell{atomic_unit}
       C -4.22384e-01 -1.10477e-01  2.21471e-01
       O  7.84612e-01  2.47974e-01 -2.96372e-01
       H  1.45860e+00  9.99238e-01 -4.19044e-01
       H -4.75120e-02 -9.50123e-01  6.70738e-01
       L  3.85872e+00  8.64423e-01 -4.15605e+00
       L  1.36880e+00 -1.44364e+00 -5.91560e+00
6
# CELL(abcABC):  459.05226   459.05226   459.05226    90.00000    90.00000    90.00000  Step:          39  Bead:       0 x_centroid{angstrom}  cell{atomic_unit}
       C -4.18666e-01 -1.07117e-01  2.22073e-01
       O  7.81566e-01  2.43648e-01 -2.98316e-01
       H  1.47057e+00  1.03188e+00 -3.99030e-01
       H -5.55036e-02 -9.54092e-01  6.75029e-01
       L  4.00071e+00  5.84437e-01 -4.72097e+00
       L  1.34158e+00 -1.28650e+00 -6.48994e+00
6
# CELL(abcABC):  459.05226   459.05226   459.05226    90.00000    90.00000    90.00000  Step:          40  Bead:       0 x_centroid{angstrom}  cell{atomic_unit}
       C -4.14766e-01 -1.03386e-01  2.22252e-01
       O  7.79022e-01  2.39807e-01 -3.00160e-01
       H  1.47262e+00  1.05864e+00 -3.79177e-01
       H -6.36794e-02 -9.64276e-01  6.82865e-01
       L  4.08652e+00  3.09239e-01 -5.22743e+00
       L  1.33327e+00 -1.11248e+00 -7.00105e+00
6
# CELL(abcABC):  459.05226   459.05226   459.05226    90.00000    90.00000    90.00000  Step:          41  Bead:       0 x_centroid{angstrom}  cell{atomic_unit}
       C -4.11069e-01 -9.86853e-02  2.21933e-01
       O  7.77213e-01  2.36086e-01 -3.01962e-01
       H  1.46503e+00  1.07829e+00 -3.57384e-01
       H -7.14756e-02 -9.80882e-01  6.93967e-01
       L  4.19207e+00  1.13308e-01 -5.72044e+00
       L  1.31521e+00 -8.87604e-01 -7.41701e+00
6
# CELL(abcABC):  459.05226   459.05226   459.05226    90.00000    90.00000    90.00000  Step:          42  Bead:       0 x_centroid{angstrom}  cell{atomic_unit}
       C -4.07093e-01 -9.34860e-02  2.21507e-01
       O  7.75897e-01  2.32852e-01 -3.03749e-01
       H  1.44687e+00  1.09058e+00 -3.36002e-01
       H -7.97919e-02 -1.00383e+00  7.06509e-01
       L  4.18291e+00 -9.12521e-02 -6.17794e+00
       L  1.30533e+00 -6.14728e-01 -7.83180e+00
6
# CELL(abcABC):  459.05226   459.05226   459.05226    90.00000    90.00000    90.00000  Step:          43  Bead:       0 x_centroid{angstrom}  cell{atomic_unit}
       C -4.02950e-01 -8.78935e-02  2.21052e-01
       O  7.75374e-01  2.30092e-01 -3.05489e-01
       H  1.41748e+00  1.09362e+00 -3.14832e-01
       H -9.13941e-02 -1.02975e+00  7.18818e-01
       L  4.00782e+00 -2.59027e-01 -6.59105e+00
       L  1.30374e+00 -3.52053e-01 -8.20742e+00
6
# CELL(abcABC):  459.05226   459.05226   459.05226    90.00000    90.00000    90.00000  Step:          44  Bead:       0 x_centroid{angstrom}  cell{atomic_unit}
       C -3.98794e-01 -8.21976e-02  2.20476e-01
       O  7.75658e-01  2.27780e-01 -3.07069e-01
       H  1.37733e+00  1.08798e+00 -2.94722e-01
       H -1.05176e-01 -1.05534e+00  7.30964e-01
       L  3.85276e+00 -4.37878e-01 -6.90791e+00
       L  1.28863e+00 -8.60073e-02 -8.47878e+00
6
# CELL(abcABC):  459.05226   459.05226   459.05226    90.00000    90.00000    90.00000  Step:          45  Bead:       0 x_centroid{angstrom}  cell{atomic_unit}
       C -3.94020e-01 -7.65580e-02  2.20288e-01
       O  7.76266e-01  2.25761e-01 -3.08703e-01
       H  1.32750e+00  1.07630e+00 -2.76595e-01
       H -1.21767e-01 -1.07886e+00  7.41254e-01
       L  3.68195e+00 -6.26987e-01 -7.14449e+00
       L  1.26707e+00  2.11011e-01 -8.70397e+00
6
# CELL(abcABC):  459.05226   459.05226   459.05226    90.00000    90.00000    90.00000  Step:          46  Bead:       0 x_centroid{angstrom}  cell{atomic_unit}
       C -3.89053e-01 -7.11110e-02  2.20663e-01
       O  7.77292e-01  2.23974e-01 -3.10366e-01
       H  1.27062e+00  1.06018e+00 -2.60929e-01
       H -1.40241e-01 -1.09937e+00  7.47693e-01
       L  3.52380e+00 -7.65436e-01 -7.30800e+00
       L  1.20623e+00  4.77595e-01 -8.83775e+00
6
# CELL(abcABC):  459.05226   459.05226   459.05226    90.00000    90.00000    90.00000  Step:          47  Bead:       0 x_centroid{angstrom}  cell{atomic_unit}
       C -3.83710e-01 -6.56663e-02  2.21082e-01
       O  7.78468e-01  2.22010e-01 -3.11881e-01
       H  1.20888e+00  1.04411e+00 -2.45839e-01
       H -1.60703e-01 -1.11703e+00  7.51737e-01
       L  3.32760e+00 -8.95687e-01 -7.47241e+00
       L  1.13618e+00  6.92172e-01 -8.83545e+00
6
# CELL(abcABC):  459.05226   459.05226   459.05226    90.00000    90.00000    90.00000  Step:          48  Bead:       0 x_centroid{angstrom}  cell{atomic_unit}
       C -3.78315e-01 -6.03178e-02  2.21856e-01
       O  7.79830e-01  2.19649e-01 -3.13315e-01
       H  1.14582e+00  1.03317e+00 -2.31775e-01
       H -1.83394e-01 -1.13243e+00  7.51238e-01
       L  3.08807e+00 -9.86837e-01 -7.57702e+00
       L  1.10240e+00  9.11799e-01 -8.77662e+00
6
# CELL(abcABC):  459.05226   459.05226   459.05226    90.00000    90.00000    90.00000  Step:          49  Bead:       0 x_centroid{angstrom}  cell{atomic_unit}
       C -3.72912e-01 -5.51584e-02  2.23071e-01
       O  7.81169e-01  2.16564e-01 -3.14790e-01
       H  1.08336e+00  1.03112e+00 -2.18366e-01
       H -2.06458e-01 -1.14298e+00  7.46703e-01
       L  2.85729e+00 -1.06294e+00 -7.59873e+00
       L  1.12184e+00  1.14365e+00 -8.63941e+00
6
# CELL(abcABC):  459.05226   459.05226   459.05226    90.00000    90.00000    90.00000  Step:          50  Bead:       0 x_centroid{angstrom}  cell{atomic_unit}
       C -3.67535e-01 -5.02086e-02  2.24522e-01
       O  7.82368e-01  2.12478e-01 -3.16010e-01
       H  1.02442e+00  1.04316e+00 -2.06110e-01
       H -2.30470e-01 -1.14920e+00  7.36426e-01
       L  2.60243e+00 -1.14735e+00 -7.59512e+00
       L  1.09313e+00  1.34574e+00 -8.47458e+00
6
# CELL(abcABC):  459.05226   459.05226   459.05226    90.00000    90.00000    90.00000  Step:          51  Bead:       0 x_centroid{angstrom}  cell{atomic_unit}
       C -3.62072e-01 -4.55790e-02  2.26597e-01
       O  7.83427e-01  2.07378e-01 -3.17447e-01
       H  9.67721e-01  1.07039e+00 -1.93302e-01
       H -2.55506e-01 -1.15070e+00  7.21540e-01
       L  2.28849e+00 -1.21073e+00 -7.55672e+00
       L  1.10370e+00  1.51011e+00 -8.22864e+00
6
# CELL(abcABC):  459.05226   459.05226   459.05226    90.00000    90.00000    90.00000  Step:          52  Bead:       0 x_centroid{angstrom}  cell{atomic_unit}
       C -3.56805e-01 -4.12894e-02  2.28941e-01
       O  7.84550e-01  2.01585e-01 -3.18694e-01
       H  9.12709e-01  1.10804e+00 -1.82329e-01
       H -2.80898e-01 -1.14754e+00  7.02220e-01
       L  1.94051e+00 -1.26513e+00 -7.47585e+00
       L  1.10746e+00  1.62677e+00 -7.90615e+00
6
# CELL(abcABC):  459.05226   459.05226   459.05226    90.00000    90.00000    90.00000  Step:          53  Bead:       0 x_centroid{angstrom}  cell{atomic_unit}
       C -3.51492e-01 -3.74021e-02  2.31682e-01
       O  7.85639e-01  1.95630e-01 -3.19899e-01
       H  8.58055e-01  1.14895e+00 -1.73286e-01
       H -3.06632e-01 -1.14031e+00  6.79315e-01
       L  1.52049e+00 -1.32956e+00 -7.26283e+00
       L  1.13570e+00  1.81094e+00 -7.52900e+00
6
# CELL(abcABC):  459.05226   459.05226   459.05226    90.00000    90.00000    90.00000  Step:          54  Bead:       0 x_centroid{angstrom}  cell{atomic_unit}
       C -3.46315e-01 -3.39023e-02  2.34808e-01
       O  7.86772e-01  1.89777e-01 -3.20982e-01
       H  8.05518e-01  1.18849e+00 -1.66743e-01
       H -3.33541e-01 -1.12874e+00  6.52349e-01
       L  1.14268e+00 -1.33860e+00 -6.95528e+00
       L  1.10410e+00  2.01126e+00 -7.14175e+00
6
# CELL(abcABC):  459.05226   459.05226   459.05226    90.00000    90.00000    90.00000  Step:          55  Bead:       0 x_centroid{angstrom}  cell{atomic_unit}
       C -3.41493e-01 -3.09096e-02  2.38338e-01
       O  7.87998e-01  1.84488e-01 -3.21895e-01
       H  7.56152e-01  1.22218e+00 -1.64695e-01
       H -3.60863e-01 -1.11421e+00  6.22279e-01
       L  7.07518e-01 -1.37222e+00 -6.60457e+00
       L  1.09022e+00  2.16834e+00 -6.65964e+00
6
# CELL(abcABC):  459.05226   459.05226   459.05226    90.00000    90.00000    90.00000  Step:          56  Bead:       0 x_centroid{angstrom}  cell{atomic_unit}
       C -3.37231e-01 -2.81556e-02  2.41924e-01
       O  7.89477e-01  1.79840e-01 -3.22377e-01
       H  7.08958e-01  1.24617e+00 -1.66708e-01
       H -3.87664e-01 -1.09732e+00  5.88692e-01
       L  2.31156e-01 -1.40668e+00 -6.17702e+00
       L  1.08668e+00  2.33621e+00 -6.13754e+00
6
# CELL(abcABC):  459.05226   459.05226   459.05226    90.00000    90.00000    90.00000  Step:          57  Bead:       0 x_centroid{angstrom}  cell{atomic_unit}
       C -3.33656e-01 -2.56644e-02  2.45997e-01
       O  7.91066e-01  1.76056e-01 -3.22900e-01
       H  6.66885e-01  1.25947e+00 -1.72824e-01
       H -4.13158e-01 -1.08030e+00  5.54005e-01
       L -2.40502e-01 -1.47585e+00 -5.75417e+00
       L  1.09884e+00  2.51349e+00 -5.51904e+00
6
# CELL(abcABC):  459.05226   459.05226   459.05226    90.00000    90.00000    90.00000  Step:          58  Bead:       0 x_centroid{angstrom}  cell{atomic_unit}
       C -3.30336e-01 -2.32339e-02  2.50293e-01
       O  7.92560e-01  1.73033e-01 -3.23181e-01
       H  6.28688e-01  1.26212e+00 -1.84084e-01
       H -4.37999e-01 -1.06397e+00  5.17915e-01
       L -7.40070e-01 -1.51714e+00 -5.25094e+00
       L  1.13744e+00  2.64058e+00 -4.89393e+00
6
# CELL(abcABC):  459.05226   459.05226   459.05226    90.00000    90.00000    90.00000  Step:          59  Bead:       0 x_centroid{angstrom}  cell{atomic_unit}
       C -3.27575e-01 -2.13057e-02  2.54783e-01
       O  7.94110e-01  1.71188e-01 -3.23249e-01
       H  5.95047e-01  1.25324e+00 -2.00065e-01
       H -4.61603e-01 -1.04878e+00  4.80882e-01
       L -1.22511e+00 -1.55958e+00 -4.76876e+00
       L  1.16900e+00  2.68108e+00 -4.26552e+00
6
# CELL(abcABC):  459.05226   459.05226   459.05226    90.00000    90.00000    90.00000  Step:          60  Bead:       0 x_centroid{angstrom}  cell{atomic_unit}
       C -3.25384e-01 -1.92137e-02  2.59230e-01
       O  7.95598e-01  1.70188e-01 -3.23061e-01
       H  5.68907e-01  1.23311e+00 -2.21482e-01
       H -4.85029e-01 -1.03774e+00  4.45648e-01
       L -1.66027e+00 -1.59998e+00 -4.23118e+00
       L  1.30343e+00  2.79021e+00 -3.56959e+00
6
# CELL(abcABC):  459.05226   459.05226   459.05226    90.00000    90.00000    90.00000  Step:          61  Bead:       0 x_centroid{angstrom}  cell{atomic_unit}
       C -3.23536e-01 -1.67855e-02  2.64195e-01
       O  7.96793e-01  1.69890e-01 -3.22915e-01
       H  5.50117e-01  1.20363e+00 -2.47486e-01
       H -5.07040e-01 -1.03245e+00  4.09471e-01
       L -2.14167e+00 -1.67229e+00 -3.66934e+00
       L  1.43334e+00  2.84259e+00 -2.86756e+00
6
# CELL(abcABC):  459.05226   459.05226   459.05226    90.00000    90.00000    90.00000  Step:          62  Bead:       0 x_centroid{angstrom}  cell{atomic_unit}
       C -3.22036e-01 -1.43862e-02  2.69313e-01
       O  7.97682e-01  1.70544e-01 -3.22560e-01
       H  5.39749e-01  1.16540e+00 -2.77706e-01
       H -5.28459e-01 -1.03322e+00  3.72403e-01
       L -2.60693e+00 -1.67096e+00 -3.12182e+00
       L  1.52584e+00  2.87432e+00 -2.16717e+00
6
# CELL(abcABC):  459.05226   459.05226   459.05226    90.00000    90.00000    90.00000  Step:          63  Bead:       0 x_centroid{angstrom}  cell{atomic_unit}
       C -3.20824e-01 -1.23467e-02  2.74675e-01
       O  7.98379e-01  1.72091e-01 -3.22259e-01
       H  5.35851e-01  1.12208e+00 -3.10688e-01
       H -5.49867e-01 -1.03880e+00  3.36028e-01
       L -3.07782e+00 -1.66476e+00 -2.57395e+00
       L  1.62111e+00  2.92609e+00 -1.47516e+00
6
# CELL(abcABC):  459.05226   459.05226   459.05226    90.00000    90.00000    90.00000  Step:          64  Bead:       0 x_centroid{angstrom}  cell{atomic_unit}
       C -3.19923e-01 -1.03904e-02  2.80540e-01
       O  7.98760e-01  1.73915e-01 -3.22099e-01
       H  5.39722e-01  1.07800e+00 -3.47033e-01
       H -5.70302e-01 -1.04704e+00  2.99309e-01
       L -3.53592e+00 -1.55926e+00 -2.03015e+00
       L  1.69838e+00  2.95115e+00 -8.35464e-01
6
# CELL(abcABC):  459.05226   459.05226   459.05226    90.00000    90.00000    90.00000  Step:          65  Bead:       0 x_centroid{angstrom}  cell{atomic_unit}
       C -3.19800e-01 -8.54904e-03  2.86764e-01
       O  7.99214e-01  1.75738e-01 -3.22148e-01
       H  5.49317e-01  1.03813e+00 -3.85163e-01
       H -5.88376e-01 -1.05812e+00  2.63394e-01
       L -3.95884e+00 -1.41564e+00 -1.49924e+00
       L  1.78097e+00  2.93378e+00 -1.57719e-01
6
# CELL(abcABC):  459.05226   459.05226   459.05226    90.00000    90.00000    90.00000  Step:          66  Bead:       0 x_centroid{angstrom}  cell{atomic_unit}
       C -3.20312e-01 -6.39647e-03  2.93195e-01