6
# CELL(abcABC):  459.05226   459.05226   459.05226    90.00000    90.00000    90.00000  Step:           0  Bead:       0 x_centroid{angstrom}  cell{atomic_unit}
       C -3.39887e-01 -1.13437e-01  8.06659e-02
       O  8.43483e-01  2.62672e-01 -1.81512e-01
       H -7.35799e-02  8.16467e-01 -6.61432e-01
       H -4.30016e-01 -9.65701e-01  7.62278e-01
       L  0.00000e+00  0.00000e+00  0.00000e+00
       L  0.00000e+00  0.00000e+00  0.00000e+00
6
# CELL(abcABC):  459.05226   459.05226   459.05226    90.00000    90.00000    90.00000  Step:           1  Bead:       0 x_centroid{angstrom}  cell{atomic_unit}
       C -3.39410e-01 -1.13888e-01  7.80972e-02
       O  8.41922e-01  2.62700e-01 -1.79005e-01
       H -6.58520e-02  8.17678e-01 -6.53274e-01
       H -4.18703e-01 -9.61652e-01  7.45019e-01
       L  2.56561e-01 -3.34074e-01 -3.07925e-02
       L -1.66581e-01 -2.76615e-01 -1.28289e-01
6
# CELL(abcABC):  459.05226   459.05226   459.05226    90.00000    90.00000    90.00000  Step:           2  Bead:       0 x_centroid{angstrom}  cell{atomic_unit}
       C -3.38732e-01 -1.13992e-01  7.56739e-02
       O  8.40315e-01  2.62563e-01 -1.76677e-01
       H -5.78039e-02  8.18291e-01 -6.45628e-01
       H -4.09370e-01 -9.58493e-01  7.29364e-01
       L  4.80109e-01 -6.88300e-01 -4.93535e-02
       L -2.81474e-01 -5.84464e-01 -2.41532e-01
6
# CELL(abcABC):  459.05226   459.05226   459.05226    90.00000    90.00000    90.00000  Step:           3  Bead:       0 x_centroid{angstrom}  cell{atomic_unit}
       C -3.38109e-01 -1.14572e-01  7.27765e-02
       O  8.38723e-01  2.62820e-01 -1.74078e-01
       H -4.87302e-02  8.19581e-01 -6.37761e-01
       H -4.00673e-01 -9.56600e-01  7.14843e-01
       L  6.99600e-01 -1.04309e+00 -8.04693e-02
       L -3.56035e-01 -8.80179e-01 -3.64143e-01
6
# CELL(abcABC):  459.05226   459.05226   459.05226    90.00000    90.00000    90.00000  Step:           4  Bead:       0 x_centroid{angstrom}  cell{atomic_unit}
       C -3.37660e-01 -1.15237e-01  6.99671e-02
       O  8.37240e-01  2.63230e-01 -1.71620e-01
       H -3.85679e-02  8.22021e-01 -6.30587e-01
       H -3.92756e-01 -9.57257e-01  7.02190e-01
       L  9.20801e-01 -1.37092e+00 -7.72766e-02
       L -3.78117e-01 -1.22441e+00 -4.76603e-01
6
# CELL(abcABC):  459.05226   459.05226   459.05226    90.00000    90.00000    90.00000  Step:           5  Bead:       0 x_centroid{angstrom}  cell{atomic_unit}
       C -3.37587e-01 -1.15935e-01  6.73531e-02
       O  8.35920e-01  2.63760e-01 -1.69378e-01
       H -2.68211e-02  8.26203e-01 -6.24537e-01
       H -3.84575e-01 -9.61160e-01  6.91778e-01
       L  1.18629e+00 -1.64091e+00 -6.89420e-02
       L -3.70333e-01 -1.63451e+00 -6.00774e-01
6
# CELL(abcABC):  459.05226   459.05226   459.05226    90.00000    90.00000    90.00000  Step:           6  Bead:       0 x_centroid{angstrom}  cell{atomic_unit}
       C -3.38089e-01 -1.16850e-01  6.46310e-02
       O  8.34950e-01  2.64533e-01 -1.67143e-01
       H -1.28281e-02  8.32591e-01 -6.19898e-01
       H -3.77312e-01 -9.68542e-01  6.84143e-01
       L  1.45069e+00 -1.92357e+00 -8.11967e-02
       L -3.99747e-01 -2.05521e+00 -6.89836e-01
6
# CELL(abcABC):  459.05226   459.05226   459.05226    90.00000    90.00000    90.00000  Step:           7  Bead:       0 x_centroid{angstrom}  cell{atomic_unit}
       C -3.38822e-01 -1.18038e-01  6.18650e-02
       O  8.34024e-01  2.65567e-01 -1.64992e-01
       H  3.34330e-03  8.41406e-01 -6.15886e-01
       H -3.70149e-01 -9.79235e-01  6.79013e-01
       L  1.71223e+00 -2.21230e+00 -9.01774e-02
       L -4.84985e-01 -2.47042e+00 -7.83518e-01
6
# CELL(abcABC):  459.05226   459.05226   459.05226    90.00000    90.00000    90.00000  Step:           8  Bead:       0 x_centroid{angstrom}  cell{atomic_unit}
       C -3.40090e-01 -1.19323e-01  5.92040e-02
       O  8.33377e-01  2.66720e-01 -1.63035e-01
       H  2.29114e-02  8.52142e-01 -6.12528e-01
       H -3.64406e-01 -9.92640e-01  6.76330e-01
       L  1.94049e+00 -2.45696e+00 -1.18316e-01
       L -5.78565e-01 -2.80681e+00 -8.32511e-01
6
# CELL(abcABC):  459.05226   459.05226   459.05226    90.00000    90.00000    90.00000  Step:           9  Bead:       0 x_centroid{angstrom}  cell{atomic_unit}
       C -3.41741e-01 -1.20661e-01  5.67781e-02
       O  8.32761e-01  2.67951e-01 -1.61314e-01
       H  4.84120e-02  8.64663e-01 -6.11150e-01
       H -3.60490e-01 -1.00847e+00  6.76590e-01
       L  2.13420e+00 -2.65415e+00 -1.61431e-01
       L -7.05032e-01 -3.12320e+00 -8.78009e-01
6
# CELL(abcABC):  459.05226   459.05226   459.05226    90.00000    90.00000    90.00000  Step:          10  Bead:       0 x_centroid{angstrom}  cell{atomic_unit}
       C -3.44021e-01 -1.22251e-01  5.50880e-02
       O  8.32196e-01  2.69377e-01 -1.60114e-01
       H  7.98859e-02  8.77871e-01 -6.10444e-01
       H -3.55874e-01 -1.02512e+00  6.77027e-01
       L  2.31365e+00 -2.86341e+00 -2.20052e-01
       L -7.99080e-01 -3.39110e+00 -9.07546e-01
6
# CELL(abcABC):  459.05226   459.05226   459.05226    90.00000    90.00000    90.00000  Step:          11  Bead:       0 x_centroid{angstrom}  cell{atomic_unit}
       C -3.46844e-01 -1.24630e-01  5.39517e-02
       O  8.31608e-01  2.71267e-01 -1.59337e-01
       H  1.18560e-01  8.93447e-01 -6.10301e-01
       H -3.51580e-01 -1.04207e+00  6.78171e-01
       L  2.42292e+00 -3.08679e+00 -3.31375e-01
       L -9.05247e-01 -3.67351e+00 -9.47800e-01
6
# CELL(abcABC):  459.05226   459.05226   459.05226    90.00000    90.00000    90.00000  Step:          12  Bead:       0 x_centroid{angstrom}  cell{atomic_unit}
       C -3.50645e-01 -1.27806e-01  5.32904e-02
       O  8.31184e-01  2.73501e-01 -1.58800e-01
       H  1.65816e-01  9.11403e-01 -6.12198e-01
       H -3.46791e-01 -1.05743e+00  6.79487e-01
       L  2.51797e+00 -3.25611e+00 -4.41083e-01
       L -1.02658e+00 -3.87181e+00 -9.61058e-01
6
# CELL(abcABC):  459.05226   459.05226   459.05226    90.00000    90.00000    90.00000  Step:          13  Bead:       0 x_centroid{angstrom}  cell{atomic_unit}
       C -3.54938e-01 -1.31721e-01  5.30154e-02
       O  8.30650e-01  2.76156e-01 -1.58359e-01
       H  2.20411e-01  9.30362e-01 -6.15220e-01
       H -3.41728e-01 -1.07169e+00  6.78834e-01
       L  2.59556e+00 -3.44588e+00 -5.62388e-01
       L -1.16596e+00 -4.04216e+00 -9.06433e-01
6
# CELL(abcABC):  459.05226   459.05226   459.05226    90.00000    90.00000    90.00000  Step:          14  Bead:       0 x_centroid{angstrom}  cell{atomic_unit}
       C -3.59687e-01 -1.36439e-01  5.35543e-02
       O  8.29867e-01  2.79129e-01 -1.58341e-01
       H  2.84084e-01  9.53005e-01 -6.19905e-01
       H -3.36353e-01 -1.08513e+00  6.76771e-01
       L  2.64190e+00 -3.58598e+00 -6.15327e-01
       L -1.28904e+00 -4.23315e+00 -7.85078e-01
6
# CELL(abcABC):  459.05226   459.05226   459.05226    90.00000    90.00000    90.00000  Step:          15  Bead:       0 x_centroid{angstrom}  cell{atomic_unit}
       C -3.64853e-01 -1.41995e-01  5.42014e-02
       O  8.28780e-01  2.82387e-01 -1.58365e-01
       H  3.55825e-01  9.78979e-01 -6.25871e-01
       H -3.29227e-01 -1.09649e+00  6.75359e-01
       L  2.69469e+00 -3.66113e+00 -6.79930e-01
       L -1.42564e+00 -4.38819e+00 -6.43945e-01
6
# CELL(abcABC):  459.05226   459.05226   459.05226    90.00000    90.00000    90.00000  Step:          16  Bead:       0 x_centroid{angstrom}  cell{atomic_unit}
       C -3.70300e-01 -1.48033e-01  5.54870e-02
       O  8.27484e-01  2.85669e-01 -1.58699e-01
       H  4.33652e-01  1.00787e+00 -6.33668e-01
       H -3.21523e-01 -1.10543e+00  6.73108e-01
       L  2.72468e+00 -3.68716e+00 -7.34198e-01
       L -1.55187e+00 -4.53351e+00 -5.15310e-01
6
# CELL(abcABC):  459.05226   459.05226   459.05226    90.00000    90.00000    90.00000  Step:          17  Bead:       0 x_centroid{angstrom}  cell{atomic_unit}
       C -3.76045e-01 -1.54673e-01  5.72267e-02
       O  8.26093e-01  2.89024e-01 -1.59172e-01
       H  5.16743e-01  1.04019e+00 -6.43325e-01
       H -3.14041e-01 -1.11181e+00  6.69532e-01
       L  2.76103e+00 -3.71344e+00 -8.20647e-01
       L -1.64603e+00 -4.64571e+00 -4.27979e-01
6
# CELL(abcABC):  459.05226   459.05226   459.05226    90.00000    90.00000    90.00000  Step:          18  Bead:       0 x_centroid{angstrom}  cell{atomic_unit}
       C -3.81833e-01 -1.61719e-01  5.90456e-02
       O  8.24515e-01  2.92369e-01 -1.59507e-01
       H  6.02037e-01  1.07472e+00 -6.53600e-01
       H -3.05221e-01 -1.11543e+00  6.63433e-01
       L  2.69987e+00 -3.71356e+00 -8.72541e-01
       L -1.75289e+00 -4.70534e+00 -3.25774e-01
6
# CELL(abcABC):  459.05226   459.05226   459.05226    90.00000    90.00000    90.00000  Step:          19  Bead:       0 x_centroid{angstrom}  cell{atomic_unit}
       C -3.87775e-01 -1.68799e-01  6.09880e-02
       O  8.22882e-01  2.95525e-01 -1.59922e-01
       H  6.90036e-01  1.11045e+00 -6.64272e-01
       H -2.96437e-01 -1.11694e+00  6.57514e-01
       L  2.63514e+00 -3.63635e+00 -9.07807e-01
       L -1.80950e+00 -4.71866e+00 -2.28513e-01
6
# CELL(abcABC):  459.05226   459.05226   459.05226    90.00000    90.00000    90.00000  Step:          20  Bead:       0 x_centroid{angstrom}  cell{atomic_unit}
       C -3.93047e-01 -1.75946e-01  6.27577e-02
       O  8.20621e-01  2.98755e-01 -1.60147e-01
       H  7.79274e-01  1.14381e+00 -6.75506e-01
       H -2.86895e-01 -1.11650e+00  6.51201e-01
       L  2.52502e+00 -3.51433e+00 -9.24655e-01
       L -1.83091e+00 -4.66721e+00 -1.56300e-01
6
# CELL(abcABC):  459.05226   459.05226   459.05226    90.00000    90.00000    90.00000  Step:          21  Bead:       0 x_centroid{angstrom}  cell{atomic_unit}
       C -3.98268e-01 -1.82967e-01  6.43879e-02
       O  8.18250e-01  3.02006e-01 -1.60354e-01
       H  8.68505e-01  1.17348e+00 -6.84999e-01
       H -2.76209e-01 -1.11429e+00  6.44474e-01
       L  2.39216e+00 -3.32166e+00 -8.73201e-01
       L -1.79322e+00 -4.52338e+00 -5.79594e-02
6
# CELL(abcABC):  459.05226   459.05226   459.05226    90.00000    90.00000    90.00000  Step:          22  Bead:       0 x_centroid{angstrom}  cell{atomic_unit}
       C -4.03275e-01 -1.89555e-01  6.60547e-02
       O  8.15894e-01  3.05225e-01 -1.60798e-01
       H  9.54366e-01  1.19718e+00 -6.90817e-01
       H -2.64973e-01 -1.11083e+00  6.37388e-01
       L  2.25106e+00 -3.05208e+00 -8.19283e-01
       L -1.73609e+00 -4.35182e+00  4.20592e-02
6
# CELL(abcABC):  459.05226   459.05226   459.05226    90.00000    90.00000    90.00000  Step:          23  Bead:       0 x_centroid{angstrom}  cell{atomic_unit}
       C -4.07790e-01 -1.95962e-01  6.73580e-02
       O  8.13273e-01  3.08800e-01 -1.61312e-01
       H  1.03663e+00  1.21194e+00 -6.91590e-01
       H -2.51787e-01 -1.10621e+00  6.30712e-01
       L  2.10809e+00 -2.80456e+00 -7.76683e-01
       L -1.66220e+00 -4.20173e+00  1.33968e-01
6
# CELL(abcABC):  459.05226   459.05226   459.05226    90.00000    90.00000    90.00000  Step:          24  Bead:       0 x_centroid{angstrom}  cell{atomic_unit}
       C -4.12125e-01 -2.01592e-01  6.80198e-02
       O  8.10958e-01  3.12329e-01 -1.61865e-01
       H  1.11121e+00  1.21714e+00 -6.84641e-01
       H -2.37933e-01 -1.10059e+00  6.24616e-01
       L  1.95255e+00 -2.55178e+00 -7.93948e-01
       L -1.59140e+00 -4.00264e+00  2.25253e-01
6
# CELL(abcABC):  459.05226   459.05226   459.05226    90.00000    90.00000    90.00000  Step:          25  Bead:       0 x_centroid{angstrom}  cell{atomic_unit}
       C -4.16071e-01 -2.06661e-01  6.83594e-02
       O  8.08759e-01  3.16093e-01 -1.62554e-01
       H  1.17874e+00  1.21328e+00 -6.74071e-01
       H -2.23467e-01 -1.09631e+00  6.20926e-01
       L  1.77031e+00 -2.33204e+00 -8.43391e-01
       L -1.51474e+00 -3.76410e+00  2.95756e-01
6
# CELL(abcABC):  459.05226   459.05226   459.05226    90.00000    90.00000    90.00000  Step:          26  Bead:       0 x_centroid{angstrom}  cell{atomic_unit}
       C -4.19771e-01 -2.10782e-01  6.80602e-02
       O  8.06824e-01  3.19849e-01 -1.63242e-01
       H  1.23769e+00  1.19976e+00 -6.58102e-01
       H -2.07577e-01 -1.09357e+00  6.19425e-01
       L  1.58585e+00 -2.12321e+00 -8.75339e-01
       L -1.41243e+00 -3.50749e+00  3.64858e-01
6
# CELL(abcABC):  459.05226   459.05226   459.05226    90.00000    90.00000    90.00000  Step:          27  Bead:       0 x_centroid{angstrom}  cell{atomic_unit}
       C -4.22912e-01 -2.13969e-01  6.76974e-02
       O  8.04929e-01  3.23650e-01 -1.64262e-01
       H  1.28683e+00  1.17775e+00 -6.36738e-01
       H -1.89177e-01 -1.09417e+00  6.18575e-01
       L  1.38104e+00 -1.89527e+00 -9.31896e-01
       L -1.25147e+00 -3.23518e+00  4.25172e-01
6
# CELL(abcABC):  459.05226   459.05226   459.05226    90.00000    90.00000    90.00000  Step:          28  Bead:       0 x_centroid{angstrom}  cell{atomic_unit}
       C -4.26052e-01 -2.16626e-01  6.68027e-02
       O  8.03675e-01  3.27654e-01 -1.65307e-01
       H  1.32517e+00  1.14787e+00 -6.11453e-01
       H -1.70137e-01 -1.09651e+00  6.20520e-01
       L  1.18641e+00 -1.66949e+00 -9.73458e-01
       L -1.15862e+00 -2.87080e+00  4.82292e-01
6
# CELL(abcABC):  459.05226   459.05226   459.05226    90.00000    90.00000    90.00000  Step:          29  Bead:       0 x_centroid{angstrom}  cell{atomic_unit}
       C -4.29067e-01 -2.18779e-01  6.56493e-02
       O  8.02871e-01  3.31948e-01 -1.66345e-01
       H  1.35257e+00  1.10911e+00 -5.83334e-01
       H -1.48766e-01 -1.10059e+00  6.22658e-01
       L  9.57956e-01 -1.46786e+00 -1.04981e+00
       L -1.10218e+00 -2.46034e+00  5.11235e-01
6
# CELL(abcABC):  459.05226   459.05226   459.05226    90.00000    90.00000    90.00000  Step:          30  Bead:       0 x_centroid{angstrom}  cell{atomic_unit}
       C -4.31521e-01 -2.19969e-01  6.42416e-02
       O  8.02299e-01  3.35765e-01 -1.67393e-01
       H  1.36925e+00  1.06551e+00 -5.52917e-01
       H -1.27034e-01 -1.10379e+00  6.25697e-01
       L  7.33013e-01 -1.22804e+00 -1.12370e+00
       L -1.01229e+00 -2.02291e+00  4.94848e-01
6
# CELL(abcABC):  459.05226   459.05226   459.05226    90.00000    90.00000    90.00000  Step:          31  Bead:       0 x_centroid{angstrom}  cell{atomic_unit}
       C -4.33434e-01 -2.20535e-01  6.27875e-02
       O  8.01836e-01  3.39257e-01 -1.68467e-01
       H  1.37860e+00  1.02006e+00 -5.20917e-01
       H -1.06171e-01 -1.10741e+00  6.28153e-01
       L  5.37351e-01 -9.53025e-01 -1.23515e+00
       L -9.34664e-01 -1.55522e+00  4.42916e-01
6
# CELL(abcABC):  459.05226   459.05226   459.05226    90.00000    90.00000    90.00000  Step:          32  Bead:       0 x_centroid{angstrom}  cell{atomic_unit}
       C -4.34770e-01 -2.20524e-01  6.11973e-02
       O  8.01214e-01  3.42276e-01 -1.69326e-01
       H  1.38267e+00  9.75861e-01 -4.90503e-01
       H -8.44074e-02 -1.11171e+00  6.30422e-01
       L  3.31880e-01 -6.20240e-01 -1.31479e+00
       L -8.49620e-01 -1.07299e+00  3.61440e-01
6
# CELL(abcABC):  459.05226   459.05226   459.05226    90.00000    90.00000    90.00000  Step:          33  Bead:       0 x_centroid{angstrom}  cell{atomic_unit}
       C -4.35399e-01 -2.20160e-01  5.95540e-02
       O  8.00171e-01  3.44778e-01 -1.69858e-01
       H  1.38536e+00  9.35618e-01 -4.63153e-01
       H -6.29863e-02 -1.11597e+00  6.31186e-01
       L  1.72903e-01 -3.09865e-01 -1.39814e+00
       L -7.76882e-01 -5.49823e-01  2.72388e-01
6
# CELL(abcABC):  459.05226   459.05226   459.05226    90.00000    90.00000    90.00000  Step:          34  Bead:       0 x_centroid{angstrom}  cell{atomic_unit}
       C -4.35518e-01 -2.19530e-01  5.79545e-02
       O  7.98725e-01  3.46314e-01 -1.70039e-01
       H  1.39101e+00  9.06263e-01 -4.41220e-01
       H -4.42008e-02 -1.11894e+00  6.31287e-01
       L  4.35014e-03  5.62406e-03 -1.48308e+00
       L -7.48257e-01 -5.74313e-02  1.69115e-01
6
# CELL(abcABC):  459.05226   459.05226   459.05226    90.00000    90.00000    90.00000  Step:          35  Bead:       0 x_centroid{angstrom}  cell{atomic_unit}
       C -4.35098e-01 -2.18318e-01  5.65414e-02
       O  7.96482e-01  3.46483e-01 -1.69732e-01
       H  1.40570e+00  8.89996e-01 -4.27365e-01
       H -2.82083e-02 -1.12025e+00  6.29491e-01
       L -1.60338e-01  3.51487e-01 -1.55061e+00
       L -7.22275e-01  4.24873e-01  6.47559e-02
6
# CELL(abcABC):  459.05226   459.05226   459.05226    90.00000    90.00000    90.00000  Step:          36  Bead:       0 x_centroid{angstrom}  cell{atomic_unit}
       C -4.33639e-01 -2.16801e-01  5.51279e-02
       O  7.92988e-01  3.45521e-01 -1.68971e-01
       H  1.43045e+00  8.86954e-01 -4.20299e-01
       H -1.48026e-02 -1.12045e+00  6.27329e-01
       L -3.16945e-01  6.73417e-01 -1.63270e+00
       L -6.98573e-01  8.86272e-01 -9.26422e-02
6
# CELL(abcABC):  459.05226   459.05226   459.05226    90.00000    90.00000    90.00000  Step:          37  Bead:       0 x_centroid{angstrom}  cell{atomic_unit}
       C -4.31559e-01 -2.15434e-01  5.38385e-02
       O  7.88812e-01  3.43874e-01 -1.67851e-01
       H  1.46203e+00  8.94054e-01 -4.18621e-01
       H -4.83956e-03 -1.11806e+00  6.23359e-01
       L -4.56319e-01  9.86085e-01 -1.73696e+00
       L -6.44035e-01  1.26161e+00 -2.38379e-01
6
# CELL(abcABC):  459.05226   459.05226   459.05226    90.00000    90.00000    90.00000  Step:          38  Bead:       0 x_centroid{angstrom}  cell{atomic_unit}
       C -4.28727e-01 -2.13742e-01  5.27031e-02
       O  7.84211e-01  3.41596e-01 -1.66556e-01
       H  1.49505e+00  9.06435e-01 -4.21199e-01
       H  1.47854e-03 -1.11485e+00  6.19033e-01
       L -6.10673e-01  1.32260e+00 -1.80130e+00
       L -5.63875e-01  1.66270e+00 -3.95591e-01
6
# CELL(abcABC):  459.05226   459.05226   459.05226    90.00000    90.00000    90.00000  Step:          39  Bead:       0 x_centroid{angstrom}  cell{atomic_unit}
       C -4.25188e-01 -2.12085e-01  5.13272e-02
       O  7.79564e-01  3.39068e-01 -1.64985e-01
       H  1.52487e+00  9.21543e-01 -4.24039e-01
       H  3.26981e-03 -1.10997e+00  6.13425e-01
       L -7.54361e-01  1.64321e+00 -1.80805e+00
       L -4.75803e-01  2.06714e+00 -5.58085e-01
6
# CELL(abcABC):  459.05226   459.05226   459.05226    90.00000    90.00000    90.00000  Step:          40  Bead:       0 x_centroid{angstrom}  cell{atomic_unit}
       C -4.20982e-01 -2.10702e-01  4.97312e-02
       O  7.75149e-01  3.36704e-01 -1.63246e-01
       H  1.54697e+00  9.35968e-01 -4.26826e-01
       H  1.16518e-03 -1.10375e+00  6.07677e-01
       L -8.99985e-01  1.95774e+00 -1.78639e+00
       L -3.80741e-01  2.49636e+00 -6.67474e-01
6
# CELL(abcABC):  459.05226   459.05226   459.05226    90.00000    90.00000    90.00000  Step:          41  Bead:       0 x_centroid{angstrom}  cell{atomic_unit}
       C -4.16585e-01 -2.08934e-01  4.80497e-02
       O  7.71444e-01  3.34277e-01 -1.61430e-01
       H  1.56009e+00  9.46568e-01 -4.27976e-01
       H -5.51414e-03 -1.09728e+00  6.00107e-01
       L -1.05806e+00  2.25615e+00 -1.72159e+00
       L -2.97411e-01  2.90146e+00 -8.50284e-01
6
# CELL(abcABC):  459.05226   459.05226   459.05226    90.00000    90.00000    90.00000  Step:          42  Bead:       0 x_centroid{angstrom}  cell{atomic_unit}
       C -4.11912e-01 -2.07142e-01  4.63256e-02
       O  7.68450e-01  3.31945e-01 -1.59622e-01
       H  1.56339e+00  9.53391e-01 -4.28332e-01
       H -1.69407e-02 -1.08881e+00  5.92379e-01
       L -1.18063e+00  2.53588e+00 -1.65080e+00
       L -2.41867e-01  3.32734e+00 -1.06695e+00
6
# CELL(abcABC):  459.05226   459.05226   459.05226    90.00000    90.00000    90.00000  Step:          43  Bead:       0 x_centroid{angstrom}  cell{atomic_unit}
       C -4.06988e-01 -2.05848e-01  4.45517e-02
       O  7.66121e-01  3.30223e-01 -1.57967e-01
       H  1.55480e+00  9.56174e-01 -4.27450e-01
       H -3.00114e-02 -1.08004e+00  5.86407e-01
       L -1.24672e+00  2.78188e+00 -1.54089e+00
       L -2.21416e-01  3.71155e+00 -1.23449e+00
6
# CELL(abcABC):  459.05226   459.05226   459.05226    90.00000    90.00000    90.00000  Step:          44  Bead:       0 x_centroid{angstrom}  cell{atomic_unit}
       C -4.02343e-01 -2.04340e-01  4.31255e-02
       O  7.64832e-01  3.28770e-01 -1.56794e-01
       H  1.53559e+00  9.53917e-01 -4.24734e-01
       H -4.57146e-02 -1.07295e+00  5.82060e-01
       L -1.27106e+00  2.99545e+00 -1.37556e+00
       L -1.75189e-01  4.01397e+00 -1.38664e+00
6
# CELL(abcABC):  459.05226   459.05226   459.05226    90.00000    90.00000    90.00000  Step:          45  Bead:       0 x_centroid{angstrom}  cell{atomic_unit}
       C -3.97869e-01 -2.02830e-01  4.14428e-02
       O  7.64354e-01  3.27713e-01 -1.55600e-01
       H  1.50710e+00  9.48800e-01 -4.20625e-01
       H -6.29154e-02 -1.06931e+00  5.79009e-01
       L -1.31036e+00  3.17465e+00 -1.22856e+00
       L -1.80390e-01  4.28669e+00 -1.48140e+00
6
# CELL(abcABC):  459.05226   459.05226   459.05226    90.00000    90.00000    90.00000  Step:          46  Bead:       0 x_centroid{angstrom}  cell{atomic_unit}
       C -3.93534e-01 -2.01165e-01  3.99539e-02
       O  7.64600e-01  3.26987e-01 -1.54650e-01
       H  1.47070e+00  9.40297e-01 -4.16634e-01
       H -8.20783e-02 -1.06935e+00  5.77633e-01
       L -1.31368e+00  3.34811e+00 -1.11342e+00
       L -1.84186e-01  4.52392e+00 -1.50734e+00
6
# CELL(abcABC):  459.05226   459.05226   459.05226    90.00000    90.00000    90.00000  Step:          47  Bead:       0 x_centroid{angstrom}  cell{atomic_unit}
       C -3.89510e-01 -1.98975e-01  3.79246e-02
       O  7.65523e-01  3.25991e-01 -1.53397e-01
       H  1.42819e+00  9.33007e-01 -4.13618e-01
       H -1.02166e-01 -1.07256e+00  5.78874e-01
       L -1.33343e+00  3.54280e+00 -1.02919e+00
       L -1.52668e-01  4.74517e+00 -1.51373e+00
6
# CELL(abcABC):  459.05226   459.05226   459.05226    90.00000    90.00000    90.00000  Step:          48  Bead:       0 x_centroid{angstrom}  cell{atomic_unit}
       C -3.85695e-01 -1.96683e-01  3.55209e-02
       O  7.66875e-01  3.24959e-01 -1.51966e-01
       H  1.38175e+00  9.27768e-01 -4.10350e-01
       H -1.22695e-01 -1.07844e+00  5.81434e-01
       L -1.34529e+00  3.69308e+00 -9.06269e-01
       L -9.60327e-02  4.90557e+00 -1.46389e+00
6
# CELL(abcABC):  459.05226   459.05226   459.05226    90.00000    90.00000    90.00000  Step:          49  Bead:       0 x_centroid{angstrom}  cell{atomic_unit}
       C -3.82213e-01 -1.94098e-01  3.29914e-02
       O  7.68423e-01  3.23326e-01 -1.50348e-01
       H  1.33695e+00  9.29684e-01 -4.08999e-01
       H -1.43974e-01 -1.08539e+00  5.84456e-01
       L -1.33906e+00  3.80303e+00 -7.71868e-01
       L -4.62012e-02  5.07341e+00 -1.43720e+00
6
# CELL(abcABC):  459.05226   459.05226   459.05226    90.00000    90.00000    90.00000  Step:          50  Bead:       0 x_centroid{angstrom}  cell{atomic_unit}
       C -3.79059e-01 -1.91619e-01  3.02191e-02
       O  7.69934e-01  3.21121e-01 -1.48282e-01
       H  1.29679e+00  9.44058e-01 -4.13394e-01
       H -1.65401e-01 -1.09441e+00  5.88960e-01
       L -1.32534e+00  3.82585e+00 -5.96905e-01
       L -2.00573e-02  5.26047e+00 -1.36422e+00
6
# CELL(abcABC):  459.05226   459.05226   459.05226    90.00000    90.00000    90.00000  Step:          51  Bead:       0 x_centroid{angstrom}  cell{atomic_unit}
       C -3.76344e-01 -1.88643e-01  2.72632e-02
       O  7.71366e-01  3.17823e-01 -1.45808e-01
       H  1.26316e+00  9.71938e-01 -4.23684e-01
       H -1.86886e-01 -1.10547e+00  5.95107e-01
       L -1.28765e+00  3.85574e+00 -4.75874e-01
       L -4.32546e-03  5.35154e+00 -1.31334e+00
6
# CELL(abcABC):  459.05226   459.05226   459.05226    90.00000    90.00000    90.00000  Step:          52  Bead:       0 x_centroid{angstrom}  cell{atomic_unit}
       C -3.74063e-01 -1.85276e-01  2.43121e-02
       O  7.72789e-01  3.13441e-01 -1.43030e-01
       H  1.23385e+00  1.01298e+00 -4.39659e-01
       H -2.07387e-01 -1.11707e+00  6.02062e-01
       L -1.21990e+00  3.82786e+00 -3.22350e-01
       L  3.68379e-03  5.38073e+00 -1.30015e+00
6
# CELL(abcABC):  459.05226   459.05226   459.05226    90.00000    90.00000    90.00000  Step:          53  Bead:       0 x_centroid{angstrom}  cell{atomic_unit}
       C -3.72369e-01 -1.81483e-01  2.12210e-02
       O  7.74675e-01  3.08289e-01 -1.39854e-01
       H  1.20430e+00  1.06270e+00 -4.59858e-01
       H -2.28024e-01 -1.13022e+00  6.08572e-01
       L -1.14802e+00  3.78695e+00 -1.27155e-01
       L  6.45846e-02  5.43664e+00 -1.29393e+00
6
# CELL(abcABC):  459.05226   459.05226   459.05226    90.00000    90.00000    90.00000  Step:          54  Bead:       0 x_centroid{angstrom}  cell{atomic_unit}
       C -3.71312e-01 -1.77413e-01  1.83605e-02
       O  7.77225e-01  3.02753e-01 -1.36652e-01
       H  1.17168e+00  1.11577e+00 -4.82918e-01
       H -2.48544e-01 -1.14391e+00  6.14806e-01
       L -1.09512e+00  3.76042e+00  4.62946e-02
       L  1.22565e-01  5.46028e+00 -1.31262e+00
6
# CELL(abcABC):  459.05226   459.05226   459.05226    90.00000    90.00000    90.00000  Step:          55  Bead:       0 x_centroid{angstrom}  cell{atomic_unit}
       C -3.70555e-01 -1.73208e-01  1.55765e-02
       O  7.80338e-01  2.97023e-01 -1.33303e-01
       H  1.13243e+00  1.16782e+00 -5.05991e-01
       H -2.67808e-01 -1.15508e+00  6.17779e-01
       L -1.01086e+00  3.68342e+00  2.56539e-01
       L  1.97918e-01  5.47289e+00 -1.31393e+00
6
# CELL(abcABC):  459.05226   459.05226   459.05226    90.00000    90.00000    90.00000  Step:          56  Bead:       0 x_centroid{angstrom}  cell{atomic_unit}
       C -3.70461e-01 -1.69095e-01  1.27138e-02
       O  7.84254e-01  2.91485e-01 -1.29868e-01
       H  1.08719e+00  1.21555e+00 -5.27104e-01
       H -2.85965e-01 -1.16382e+00  6.18360e-01
       L -9.50554e-01  3.57294e+00  4.81500e-01
       L  3.29763e-01  5.40851e+00 -1.32624e+00
6
# CELL(abcABC):  459.05226   459.05226   459.05226    90.00000    90.00000    90.00000  Step:          57  Bead:       0 x_centroid{angstrom}  cell{atomic_unit}
       C -3.70851e-01 -1.65057e-01  9.85064e-03
       O  7.88929e-01  2.86215e-01 -1.26418e-01
       H  1.03456e+00  1.25549e+00 -5.44496e-01
       H -3.02993e-01 -1.16808e+00  6.15011e-01
       L -9.00603e-01  3.42686e+00  6.63615e-01
       L  4.80325e-01  5.29182e+00 -1.31930e+00
6
# CELL(abcABC):  459.05226   459.05226   459.05226    90.00000    90.00000    90.00000  Step:          58  Bead:       0 x_centroid{angstrom}  cell{atomic_unit}
       C -3.71735e-01 -1.61284e-01  6.82893e-03
       O  7.94095e-01  2.81505e-01 -1.22801e-01
       H  9.76950e-01  1.28491e+00 -5.59439e-01
       H -3.16938e-01 -1.16750e+00  6.08388e-01
       L -8.74793e-01  3.23752e+00  9.11013e-01
       L  6.18501e-01  5.12695e+00 -1.29908e+00
6
# CELL(abcABC):  459.05226   459.05226   459.05226    90.00000    90.00000    90.00000  Step:          59  Bead:       0 x_centroid{angstrom}  cell{atomic_unit}
       C -3.73217e-01 -1.57547e-01  3.82825e-03
       O  7.99765e-01  2.77362e-01 -1.19285e-01
       H  9.15172e-01  1.30260e+00 -5.69996e-01
       H -3.27593e-01 -1.16371e+00  5.98784e-01
       L -8.14209e-01  3.00230e+00  1.08004e+00
       L  7.22872e-01  4.91029e+00 -1.25820e+00
6
# CELL(abcABC):  459.05226   459.05226   459.05226    90.00000    90.00000    90.00000  Step:          60  Bead:       0 x_centroid{angstrom}  cell{atomic_unit}
       C -3.75152e-01 -1.53953e-01  5.66041e-04
       O  8.05840e-01  2.73818e-01 -1.15560e-01
       H  8.50667e-01  1.30865e+00 -5.78340e-01
       H -3.36581e-01 -1.15608e+00  5.86711e-01
       L -7.44103e-01  2.80230e+00  1.25430e+00
       L  8.83835e-01  4.64016e+00 -1.14034e+00
6
# CELL(abcABC):  459.05226   459.05226   459.05226    90.00000    90.00000    90.00000  Step:          61  Bead:       0 x_centroid{angstrom}  cell{atomic_unit}
       C -3.77433e-01 -1.50769e-01 -2.62950e-03
       O  8.12067e-01  2.71211e-01 -1.12024e-01
       H  7.85883e-01  1.30132e+00 -5.81572e-01
       H -3.43555e-01 -1.14496e+00  5.71776e-01
       L -7.56277e-01  2.54791e+00  1.36970e+00
       L  1.04256e+00  4.28074e+00 -1.04260e+00
6
# CELL(abcABC):  459.05226   459.05226   459.05226    90.00000    90.00000    90.00000  Step:          62  Bead:       0 x_centroid{angstrom}  cell{atomic_unit}
       C -3.80437e-01 -1.47684e-01 -5.27026e-03
       O  8.18677e-01  2.69365e-01 -1.09177e-01
       H  7.23157e-01  1.28200e+00 -5.78950e-01
       H -3.50042e-01 -1.13274e+00  5.55302e-01
       L -7.05720e-01  2.25533e+00  1.46377e+00
       L  1.16670e+00  3.89571e+00 -8.86018e-01
6
# CELL(abcABC):  459.05226   459.05226   459.05226    90.00000    90.00000    90.00000  Step:          63  Bead:       0 x_centroid{angstrom}  cell{atomic_unit}
       C -3.83980e-01 -1.44835e-01 -7.75393e-03
       O  8.25491e-01  2.68294e-01 -1.06650e-01
       H  6.62121e-01  1.25189e+00 -5.71676e-01
       H -3.55070e-01 -1.11922e+00  5.37399e-01
       L -6.18118e-01  2.00918e+00  1.52632e+00
       L  1.27182e+00  3.47390e+00 -7.42904e-01
6
# CELL(abcABC):  459.05226   459.05226   459.05226    90.00000    90.00000    90.00000  Step:          64  Bead:       0 x_centroid{angstrom}  cell{atomic_unit}
       C -3.87982e-01 -1.42309e-01 -1.05652e-02
       O  8.32345e-01  2.68095e-01 -1.04092e-01
       H  6.05267e-01  1.21079e+00 -5.60080e-01
       H -3.59411e-01 -1.10466e+00  5.18589e-01
       L -5.56719e-01  1.73439e+00  1.58169e+00
       L  1.36761e+00  3.01664e+00 -6.05279e-01
6
# CELL(abcABC):  459.05226   459.05226   459.05226    90.00000    90.00000    90.00000  Step:          65  Bead:       0 x_centroid{angstrom}  cell{atomic_unit}
       C -3.92282e-01 -1.39843e-01 -1.32786e-02
       O  8.38985e-01  2.68600e-01 -1.01906e-01
       H  5.54889e-01  1.16055e+00 -5.45088e-01
       H -3.63256e-01 -1.09139e+00  5.01133e-01
       L -4.92094e-01  1.45560e+00  1.63240e+00
       L  1.42127e+00  2.51042e+00 -4.70866e-01
6
# CELL(abcABC):  459.05226   459.05226   459.05226    90.00000    90.00000    90.00000  Step:          66  Bead:       0 x_centroid{angstrom}  cell{atomic_unit}
       C -3.97163e-01 -1.37386e-01 -1.60986e-02