6
# CELL(abcABC):  459.05226   459.05226   459.05226    90.00000    90.00000    90.00000  Step:           0  Bead:       0 x_centroid{angstrom}  cell{atomic_unit}
       C -3.39887e-01 -1.13437e-01  8.06659e-02
       O  8.43483e-01  2.62672e-01 -1.81512e-01
       H -7.35799e-02  8.16467e-01 -6.61432e-01
       H -4.30016e-01 -9.65701e-01  7.62278e-01
       L  0.00000e+00  0.00000e+00  0.00000e+00
       L  0.00000e+00  0.00000e+00  0.00000e+00
6
# CELL(abcABC):  459.05226   459.05226   459.05226    90.00000    90.00000    90.00000  Step:           1  Bead:       0 x_centroid{angstrom}  cell{atomic_unit}
       C -3.39617e-01 -1.13565e-01  8.05761e-02
       O  8.43357e-01  2.63140e-01 -1.81520e-01
       H -7.14756e-02  8.13715e-01 -6.58159e-01
       H -4.33664e-01 -9.68675e-01  7.60902e-01
       L  8.39109e-01 -1.48893e-01 -9.43265e-01
       L -2.47584e-01 -2.13724e-01 -3.65654e-01
6
# CELL(abcABC):  459.05226   459.05226   459.05226    90.00000    90.00000    90.00000  Step:           2  Bead:       0 x_centroid{angstrom}  cell{atomic_unit}
       C -3.39234e-01 -1.13576e-01  8.04791e-02
       O  8.43135e-01  2.63449e-01 -1.81430e-01
       H -7.05567e-02  8.11720e-01 -6.55640e-01
       H -4.35935e-01 -9.71232e-01  7.58851e-01
       L  1.69185e+00 -3.33219e-01 -1.86399e+00
       L -5.03308e-01 -4.16969e-01 -7.83457e-01
6
# CELL(abcABC):  459.05226   459.05226   459.05226    90.00000    90.00000    90.00000  Step:           3  Bead:       0 x_centroid{angstrom}  cell{atomic_unit}
       C -3.39001e-01 -1.13579e-01  8.03226e-02
       O  8.42898e-01  2.63697e-01 -1.81243e-01
       H -6.84923e-02  8.09379e-01 -6.54824e-01
       H -4.37370e-01 -9.72582e-01  7.57649e-01
       L  2.50909e+00 -4.48122e-01 -2.78581e+00
       L -6.67868e-01 -7.00298e-01 -1.18575e+00
6
# CELL(abcABC):  459.05226   459.05226   459.05226    90.00000    90.00000    90.00000  Step:           4  Bead:       0 x_centroid{angstrom}  cell{atomic_unit}
       C -3.38942e-01 -1.13815e-01  8.03391e-02
       O  8.42664e-01  2.64145e-01 -1.81121e-01
       H -6.48033e-02  8.06665e-01 -6.55267e-01
       H -4.38423e-01 -9.73950e-01  7.56631e-01
       L  3.34715e+00 -5.67901e-01 -3.66039e+00
       L -8.24116e-01 -9.82113e-01 -1.54303e+00
6
# CELL(abcABC):  459.05226   459.05226   459.05226    90.00000    90.00000    90.00000  Step:           5  Bead:       0 x_centroid{angstrom}  cell{atomic_unit}
       C -3.38735e-01 -1.14202e-01  8.02998e-02
       O  8.42338e-01  2.64648e-01 -1.80845e-01
       H -6.17732e-02  8.05112e-01 -6.57363e-01
       H -4.39093e-01 -9.75524e-01  7.55493e-01
       L  4.16470e+00 -7.20348e-01 -4.57822e+00
       L -9.90366e-01 -1.27469e+00 -1.87969e+00
6
# CELL(abcABC):  459.05226   459.05226   459.05226    90.00000    90.00000    90.00000  Step:           6  Bead:       0 x_centroid{angstrom}  cell{atomic_unit}
       C -3.38490e-01 -1.14954e-01  8.05774e-02
       O  8.41902e-01  2.65223e-01 -1.80819e-01
       H -5.86016e-02  8.05505e-01 -6.59466e-01
       H -4.38619e-01 -9.75813e-01  7.54493e-01
       L  4.91241e+00 -9.06800e-01 -5.44187e+00
       L -1.08357e+00 -1.57134e+00 -2.16540e+00
6
# CELL(abcABC):  459.05226   459.05226   459.05226    90.00000    90.00000    90.00000  Step:           7  Bead:       0 x_centroid{angstrom}  cell{atomic_unit}
       C -3.38295e-01 -1.15766e-01  8.10261e-02
       O  8.41405e-01  2.65777e-01 -1.80674e-01
       H -5.45172e-02  8.06612e-01 -6.63757e-01
       H -4.37469e-01 -9.75829e-01  7.51795e-01
       L  5.67011e+00 -1.04247e+00 -6.32740e+00
       L -1.22545e+00 -1.82280e+00 -2.47890e+00
6
# CELL(abcABC):  459.05226   459.05226   459.05226    90.00000    90.00000    90.00000  Step:           8  Bead:       0 x_centroid{angstrom}  cell{atomic_unit}
       C -3.38252e-01 -1.16378e-01  8.10486e-02
       O  8.40925e-01  2.66196e-01 -1.80117e-01
       H -4.82556e-02  8.08216e-01 -6.68618e-01
       H -4.36935e-01 -9.76595e-01  7.48129e-01
       L  6.34809e+00 -1.20910e+00 -7.12738e+00
       L -1.34815e+00 -2.03641e+00 -2.75649e+00
6
# CELL(abcABC):  459.05226   459.05226   459.05226    90.00000    90.00000    90.00000  Step:           9  Bead:       0 x_centroid{angstrom}  cell{atomic_unit}
       C -3.38172e-01 -1.17105e-01  8.13102e-02
       O  8.40293e-01  2.66774e-01 -1.79600e-01
       H -3.97192e-02  8.10030e-01 -6.74184e-01
       H -4.36678e-01 -9.78752e-01  7.42957e-01
       L  6.97665e+00 -1.33386e+00 -7.91716e+00
       L -1.44140e+00 -2.19422e+00 -3.03540e+00
6
# CELL(abcABC):  459.05226   459.05226   459.05226    90.00000    90.00000    90.00000  Step:          10  Bead:       0 x_centroid{angstrom}  cell{atomic_unit}
       C -3.38112e-01 -1.18027e-01  8.17096e-02
       O  8.39540e-01  2.67521e-01 -1.79152e-01
       H -2.99376e-02  8.11717e-01 -6.79510e-01
       H -4.35528e-01 -9.81198e-01  7.36930e-01
       L  7.58763e+00 -1.40791e+00 -8.63689e+00
       L -1.51126e+00 -2.32772e+00 -3.26829e+00
6
# CELL(abcABC):  459.05226   459.05226   459.05226    90.00000    90.00000    90.00000  Step:          11  Bead:       0 x_centroid{angstrom}  cell{atomic_unit}
       C -3.38121e-01 -1.19074e-01  8.24257e-02
       O  8.38539e-01  2.68352e-01 -1.78994e-01
       H -1.63162e-02  8.14078e-01 -6.84470e-01
       H -4.33446e-01 -9.84158e-01  7.31303e-01
       L  8.15936e+00 -1.51265e+00 -9.26983e+00
       L -1.55121e+00 -2.43093e+00 -3.47113e+00
6
# CELL(abcABC):  459.05226   459.05226   459.05226    90.00000    90.00000    90.00000  Step:          12  Bead:       0 x_centroid{angstrom}  cell{atomic_unit}
       C -3.38295e-01 -1.20486e-01  8.29750e-02
       O  8.37468e-01  2.69381e-01 -1.78899e-01
       H  1.01019e-03  8.18283e-01 -6.88398e-01
       H -4.31972e-01 -9.87808e-01  7.27591e-01
       L  8.65809e+00 -1.56948e+00 -9.84069e+00
       L -1.55288e+00 -2.51767e+00 -3.64613e+00
6
# CELL(abcABC):  459.05226   459.05226   459.05226    90.00000    90.00000    90.00000  Step:          13  Bead:       0 x_centroid{angstrom}  cell{atomic_unit}
       C -3.38816e-01 -1.21916e-01  8.34371e-02
       O  8.36285e-01  2.70382e-01 -1.78767e-01
       H  2.34698e-02  8.23795e-01 -6.92686e-01
       H -4.29670e-01 -9.92114e-01  7.24625e-01
       L  9.06812e+00 -1.60906e+00 -1.03498e+01
       L -1.52618e+00 -2.55628e+00 -3.78547e+00
6
# CELL(abcABC):  459.05226   459.05226   459.05226    90.00000    90.00000    90.00000  Step:          14  Bead:       0 x_centroid{angstrom}  cell{atomic_unit}
       C -3.39952e-01 -1.23572e-01  8.37409e-02
       O  8.35138e-01  2.71568e-01 -1.78704e-01
       H  5.13209e-02  8.29747e-01 -6.95316e-01
       H -4.25982e-01 -9.97125e-01  7.22982e-01
       L  9.38627e+00 -1.67868e+00 -1.08128e+01
       L -1.47588e+00 -2.55886e+00 -3.94789e+00
6
# CELL(abcABC):  459.05226   459.05226   459.05226    90.00000    90.00000    90.00000  Step:          15  Bead:       0 x_centroid{angstrom}  cell{atomic_unit}
       C -3.41425e-01 -1.25530e-01  8.41326e-02
       O  8.33747e-01  2.72980e-01 -1.78859e-01
       H  8.57884e-02  8.36085e-01 -6.98323e-01
       H -4.20938e-01 -1.00255e+00  7.24062e-01
       L  9.59203e+00 -1.70951e+00 -1.11947e+01
       L -1.43727e+00 -2.50427e+00 -4.09155e+00
6
# CELL(abcABC):  459.05226   459.05226   459.05226    90.00000    90.00000    90.00000  Step:          16  Bead:       0 x_centroid{angstrom}  cell{atomic_unit}
       C -3.43647e-01 -1.27694e-01  8.49561e-02
       O  8.32350e-01  2.74590e-01 -1.79457e-01
       H  1.28320e-01  8.43676e-01 -7.01486e-01
       H -4.14902e-01 -1.00994e+00  7.27116e-01
       L  9.71368e+00 -1.76730e+00 -1.14601e+01
       L -1.41286e+00 -2.39619e+00 -4.20617e+00
6
# CELL(abcABC):  459.05226   459.05226   459.05226    90.00000    90.00000    90.00000  Step:          17  Bead:       0 x_centroid{angstrom}  cell{atomic_unit}
       C -3.46449e-01 -1.30428e-01  8.60038e-02
       O  8.30741e-01  2.76692e-01 -1.80164e-01
       H  1.79515e-01  8.51300e-01 -7.06584e-01
       H -4.07177e-01 -1.01836e+00  7.31092e-01
       L  9.74653e+00 -1.86104e+00 -1.16009e+01
       L -1.42008e+00 -2.29278e+00 -4.32385e+00
6
# CELL(abcABC):  459.05226   459.05226   459.05226    90.00000    90.00000    90.00000  Step:          18  Bead:       0 x_centroid{angstrom}  cell{atomic_unit}
       C -3.50000e-01 -1.33937e-01  8.73720e-02
       O  8.29044e-01  2.79210e-01 -1.81025e-01
       H  2.39704e-01  8.61587e-01 -7.13973e-01
       H -3.98102e-01 -1.02683e+00  7.35860e-01
       L  9.70195e+00 -1.95426e+00 -1.15923e+01
       L -1.42843e+00 -2.17167e+00 -4.37835e+00
6
# CELL(abcABC):  459.05226   459.05226   459.05226    90.00000    90.00000    90.00000  Step:          19  Bead:       0 x_centroid{angstrom}  cell{atomic_unit}
       C -3.54102e-01 -1.38068e-01  8.93507e-02
       O  8.27164e-01  2.82141e-01 -1.82096e-01
       H  3.07117e-01  8.74399e-01 -7.23984e-01
       H -3.86709e-01 -1.03702e+00  7.39239e-01
       L  9.55095e+00 -1.99882e+00 -1.14361e+01
       L -1.40737e+00 -1.96644e+00 -4.41758e+00
6
# CELL(abcABC):  459.05226   459.05226   459.05226    90.00000    90.00000    90.00000  Step:          20  Bead:       0 x_centroid{angstrom}  cell{atomic_unit}
       C -3.58815e-01 -1.42984e-01  9.16570e-02
       O  8.25166e-01  2.85369e-01 -1.83182e-01
       H  3.80846e-01  8.91476e-01 -7.36792e-01
       H -3.72436e-01 -1.04691e+00  7.41641e-01
       L  9.23391e+00 -1.96633e+00 -1.11739e+01
       L -1.34606e+00 -1.72101e+00 -4.38499e+00
6
# CELL(abcABC):  459.05226   459.05226   459.05226    90.00000    90.00000    90.00000  Step:          21  Bead:       0 x_centroid{angstrom}  cell{atomic_unit}
       C -3.63853e-01 -1.47921e-01  9.40861e-02
       O  8.23114e-01  2.88235e-01 -1.84177e-01
       H  4.58639e-01  9.13524e-01 -7.53029e-01
       H -3.57451e-01 -1.05578e+00  7.44470e-01
       L  8.85249e+00 -1.95111e+00 -1.07935e+01
       L -1.29025e+00 -1.43281e+00 -4.29107e+00
6
# CELL(abcABC):  459.05226   459.05226   459.05226    90.00000    90.00000    90.00000  Step:          22  Bead:       0 x_centroid{angstrom}  cell{atomic_unit}
       C -3.68990e-01 -1.53360e-01  9.70007e-02
       O  8.20820e-01  2.91040e-01 -1.85194e-01
       H  5.39623e-01  9.40056e-01 -7.73656e-01
       H -3.40572e-01 -1.06220e+00  7.46136e-01
       L  8.38066e+00 -1.91581e+00 -1.02693e+01
       L -1.25989e+00 -1.13624e+00 -4.12539e+00
6
# CELL(abcABC):  459.05226   459.05226   459.05226    90.00000    90.00000    90.00000  Step:          23  Bead:       0 x_centroid{angstrom}  cell{atomic_unit}
       C -3.74274e-01 -1.58874e-01  9.99937e-02
       O  8.18423e-01  2.93573e-01 -1.85995e-01
       H  6.21937e-01  9.70765e-01 -7.97147e-01
       H -3.21570e-01 -1.06761e+00  7.46215e-01
       L  7.82252e+00 -1.92178e+00 -9.61260e+00
       L -1.21355e+00 -7.96771e-01 -3.96149e+00
6
# CELL(abcABC):  459.05226   459.05226   459.05226    90.00000    90.00000    90.00000  Step:          24  Bead:       0 x_centroid{angstrom}  cell{atomic_unit}
       C -3.79416e-01 -1.64544e-01  1.03130e-01
       O  8.15645e-01  2.95892e-01 -1.86819e-01
       H  7.05128e-01  1.00515e+00 -8.21507e-01
       H -2.99088e-01 -1.07140e+00  7.45772e-01
       L  7.20662e+00 -1.94865e+00 -8.86722e+00
       L -1.18035e+00 -4.53105e-01 -3.76193e+00
6
# CELL(abcABC):  459.05226   459.05226   459.05226    90.00000    90.00000    90.00000  Step:          25  Bead:       0 x_centroid{angstrom}  cell{atomic_unit}
       C -3.84575e-01 -1.70178e-01  1.05985e-01
       O  8.12815e-01  2.98007e-01 -1.87436e-01
       H  7.88799e-01  1.04084e+00 -8.45304e-01
       H -2.75979e-01 -1.07373e+00  7.44784e-01
       L  6.46815e+00 -1.93866e+00 -8.08757e+00
       L -1.14155e+00 -1.22429e-01 -3.50140e+00
6
# CELL(abcABC):  459.05226   459.05226   459.05226    90.00000    90.00000    90.00000  Step:          26  Bead:       0 x_centroid{angstrom}  cell{atomic_unit}
       C -3.89704e-01 -1.75514e-01  1.08802e-01
       O  8.09787e-01  3.00059e-01 -1.88198e-01
       H  8.72848e-01  1.07244e+00 -8.65265e-01
       H -2.50394e-01 -1.07451e+00  7.42572e-01
       L  5.65557e+00 -1.88920e+00 -7.13491e+00
       L -1.14968e+00  2.17388e-01 -3.15506e+00
6
# CELL(abcABC):  459.05226   459.05226   459.05226    90.00000    90.00000    90.00000  Step:          27  Bead:       0 x_centroid{angstrom}  cell{atomic_unit}
       C -3.94749e-01 -1.80623e-01  1.11620e-01
       O  8.06777e-01  3.02312e-01 -1.89319e-01
       H  9.53487e-01  1.09744e+00 -8.79459e-01
       H -2.22692e-01 -1.07461e+00  7.40237e-01
       L  4.80510e+00 -1.81045e+00 -6.13746e+00
       L -1.13804e+00  5.47685e-01 -2.82510e+00
6
# CELL(abcABC):  459.05226   459.05226   459.05226    90.00000    90.00000    90.00000  Step:          28  Bead:       0 x_centroid{angstrom}  cell{atomic_unit}
       C -3.99651e-01 -1.85547e-01  1.14348e-01
       O  8.03918e-01  3.04686e-01 -1.90723e-01
       H  1.02931e+00  1.11528e+00 -8.87503e-01
       H -1.94240e-01 -1.07169e+00  7.37284e-01
       L  3.92589e+00 -1.72146e+00 -5.07919e+00
       L -1.12372e+00  8.62957e-01 -2.44225e+00
6
# CELL(abcABC):  459.05226   459.05226   459.05226    90.00000    90.00000    90.00000  Step:          29  Bead:       0 x_centroid{angstrom}  cell{atomic_unit}
       C -4.04289e-01 -1.90214e-01  1.16821e-01
       O  8.01153e-01  3.07333e-01 -1.92520e-01
       H  1.09884e+00  1.12296e+00 -8.87239e-01
       H -1.64139e-01 -1.06600e+00  7.35239e-01
       L  3.05246e+00 -1.62176e+00 -3.99917e+00
       L -1.12126e+00  1.18457e+00 -1.98783e+00
6
# CELL(abcABC):  459.05226   459.05226   459.05226    90.00000    90.00000    90.00000  Step:          30  Bead:       0 x_centroid{angstrom}  cell{atomic_unit}
       C -4.08736e-01 -1.94549e-01  1.19363e-01
       O  7.98708e-01  3.10142e-01 -1.94805e-01
       H  1.16028e+00  1.12276e+00 -8.80297e-01
       H -1.33292e-01 -1.05899e+00  7.33457e-01
       L  2.11621e+00 -1.47194e+00 -2.90883e+00
       L -1.08128e+00  1.48728e+00 -1.55958e+00
6
# CELL(abcABC):  459.05226   459.05226   459.05226    90.00000    90.00000    90.00000  Step:          31  Bead:       0 x_centroid{angstrom}  cell{atomic_unit}
       C -4.12646e-01 -1.98565e-01  1.21539e-01
       O  7.96373e-01  3.13322e-01 -1.97344e-01
       H  1.21268e+00  1.11307e+00 -8.64961e-01
       H -1.01585e-01 -1.05218e+00  7.31652e-01
       L  1.17713e+00 -1.30514e+00 -1.74261e+00
       L -9.80762e-01  1.80307e+00 -1.17237e+00
6
# CELL(abcABC):  459.05226   459.05226   459.05226    90.00000    90.00000    90.00000  Step:          32  Bead:       0 x_centroid{angstrom}  cell{atomic_unit}
       C -4.16253e-01 -2.01995e-01  1.23554e-01
       O  7.94293e-01  3.16679e-01 -2.00230e-01
       H  1.25675e+00  1.09479e+00 -8.42451e-01
       H -6.91561e-02 -1.04659e+00  7.30049e-01
       L  2.50018e-01 -1.07703e+00 -5.63342e-01
       L -9.53472e-01  2.07967e+00 -7.21416e-01
6
# CELL(abcABC):  459.05226   459.05226   459.05226    90.00000    90.00000    90.00000  Step:          33  Bead:       0 x_centroid{angstrom}  cell{atomic_unit}
       C -4.19777e-01 -2.04998e-01  1.25507e-01
       O  7.92825e-01  3.20308e-01 -2.03540e-01
       H  1.29164e+00  1.06793e+00 -8.12920e-01
       H -3.82983e-02 -1.04182e+00  7.28877e-01
       L -6.48298e-01 -8.40146e-01  6.39119e-01
       L -9.31352e-01  2.34985e+00 -2.63676e-01
6
# CELL(abcABC):  459.05226   459.05226   459.05226    90.00000    90.00000    90.00000  Step:          34  Bead:       0 x_centroid{angstrom}  cell{atomic_unit}
       C -4.23055e-01 -2.07837e-01  1.27410e-01
       O  7.91828e-01  3.24218e-01 -2.07093e-01
       H  1.31698e+00  1.03445e+00 -7.78358e-01
       H -8.23900e-03 -1.03684e+00  7.27134e-01
       L -1.55935e+00 -5.94791e-01  1.85391e+00
       L -9.10733e-01  2.56932e+00  2.07334e-01
6
# CELL(abcABC):  459.05226   459.05226   459.05226    90.00000    90.00000    90.00000  Step:          35  Bead:       0 x_centroid{angstrom}  cell{atomic_unit}
       C -4.25910e-01 -2.10445e-01  1.29039e-01
       O  7.91218e-01  3.28277e-01 -2.10740e-01
       H  1.33258e+00  9.95740e-01 -7.38820e-01
       H  2.03026e-02 -1.03169e+00  7.25147e-01
       L -2.47170e+00 -3.99634e-01  3.04622e+00
       L -8.33500e-01  2.76455e+00  6.97091e-01
6
# CELL(abcABC):  459.05226   459.05226   459.05226    90.00000    90.00000    90.00000  Step:          36  Bead:       0 x_centroid{angstrom}  cell{atomic_unit}
       C -4.28092e-01 -2.12861e-01  1.30676e-01
       O  7.90794e-01  3.32409e-01 -2.14451e-01
       H  1.33933e+00  9.54045e-01 -6.97099e-01
       H  4.67273e-02 -1.02698e+00  7.21969e-01
       L -3.40939e+00 -2.01249e-01  4.15398e+00
       L -7.25130e-01  2.92453e+00  1.17915e+00
6
# CELL(abcABC):  459.05226   459.05226   459.05226    90.00000    90.00000    90.00000  Step:          37  Bead:       0 x_centroid{angstrom}  cell{atomic_unit}
       C -4.29340e-01 -2.15099e-01  1.32087e-01
       O  7.90142e-01  3.36241e-01 -2.18001e-01
       H  1.34018e+00  9.13722e-01 -6.55821e-01
       H  7.15614e-02 -1.02100e+00  7.19360e-01
       L -4.35565e+00 -1.05655e-02  5.27152e+00
       L -6.11801e-01  3.03985e+00  1.65705e+00
6
# CELL(abcABC):  459.05226   459.05226   459.05226    90.00000    90.00000    90.00000  Step:          38  Bead:       0 x_centroid{angstrom}  cell{atomic_unit}
       C -4.29726e-01 -2.17116e-01  1.32810e-01
       O  7.89173e-01  3.39624e-01 -2.20755e-01
       H  1.33931e+00  8.79017e-01 -6.19088e-01
       H  9.28404e-02 -1.01610e+00  7.16885e-01
       L -5.27017e+00  1.66438e-01  6.37287e+00
       L -4.92694e-01  3.11707e+00  2.10047e+00
6
# CELL(abcABC):  459.05226   459.05226   459.05226    90.00000    90.00000    90.00000  Step:          39  Bead:       0 x_centroid{angstrom}  cell{atomic_unit}
       C -4.29270e-01 -2.18870e-01  1.33548e-01
       O  7.87559e-01  3.42107e-01 -2.22904e-01
       H  1.34316e+00  8.57320e-01 -5.91365e-01
       H  1.09572e-01 -1.01302e+00  7.13660e-01
       L -6.10243e+00  3.50915e-01  7.49494e+00
       L -3.78776e-01  3.15578e+00  2.46633e+00
6
# CELL(abcABC):  459.05226   459.05226   459.05226    90.00000    90.00000    90.00000  Step:          40  Bead:       0 x_centroid{angstrom}  cell{atomic_unit}
       C -4.28279e-01 -2.20532e-01  1.34092e-01
       O  7.85010e-01  3.43613e-01 -2.24308e-01
       H  1.35797e+00  8.50271e-01 -5.74424e-01
       H  1.23792e-01 -1.01019e+00  7.11783e-01
       L -6.90029e+00  5.61833e-01  8.54659e+00
       L -2.93488e-01  3.15292e+00  2.77986e+00
6
# CELL(abcABC):  459.05226   459.05226   459.05226    90.00000    90.00000    90.00000  Step:          41  Bead:       0 x_centroid{angstrom}  cell{atomic_unit}
       C -4.26535e-01 -2.21851e-01  1.34370e-01
       O  7.81555e-01  3.43911e-01 -2.24803e-01
       H  1.38294e+00  8.58022e-01 -5.68811e-01
       H  1.33196e-01 -1.00708e+00  7.10054e-01
       L -7.54175e+00  8.08866e-01  9.50944e+00
       L -1.95678e-01  3.13967e+00  3.03475e+00
6
# CELL(abcABC):  459.05226   459.05226   459.05226    90.00000    90.00000    90.00000  Step:          42  Bead:       0 x_centroid{angstrom}  cell{atomic_unit}
       C -4.24135e-01 -2.22843e-01  1.34374e-01
       O  7.77315e-01  3.43247e-01 -2.24439e-01
       H  1.41667e+00  8.77351e-01 -5.72373e-01
       H  1.38408e-01 -1.00412e+00  7.07197e-01
       L -8.04719e+00  1.01301e+00  1.03306e+01
       L -1.29753e-01  3.05386e+00  3.29207e+00
6
# CELL(abcABC):  459.05226   459.05226   459.05226    90.00000    90.00000    90.00000  Step:          43  Bead:       0 x_centroid{angstrom}  cell{atomic_unit}
       C -4.21003e-01 -2.23686e-01  1.34432e-01
       O  7.72753e-01  3.42182e-01 -2.23780e-01
       H  1.45242e+00  9.02877e-01 -5.80467e-01
       H  1.37912e-01 -1.00274e+00  7.03685e-01
       L -8.42615e+00  1.20752e+00  1.10175e+01
       L -5.33485e-02  2.94003e+00  3.46340e+00
6
# CELL(abcABC):  459.05226   459.05226   459.05226    90.00000    90.00000    90.00000  Step:          44  Bead:       0 x_centroid{angstrom}  cell{atomic_unit}
       C -4.16914e-01 -2.24458e-01  1.34200e-01
       O  7.67986e-01  3.41015e-01 -2.23039e-01
       H  1.48369e+00  9.30106e-01 -5.88739e-01
       H  1.33696e-01 -1.00224e+00  7.02540e-01
       L -8.71185e+00  1.33890e+00  1.16145e+01
       L  8.69139e-03  2.80905e+00  3.61073e+00
6
# CELL(abcABC):  459.05226   459.05226   459.05226    90.00000    90.00000    90.00000  Step:          45  Bead:       0 x_centroid{angstrom}  cell{atomic_unit}
       C -4.12163e-01 -2.24981e-01  1.33852e-01
       O  7.63409e-01  3.39868e-01 -2.22293e-01
       H  1.50713e+00  9.55732e-01 -5.96268e-01
       H  1.26477e-01 -1.00340e+00  7.02068e-01
       L -8.98941e+00  1.40076e+00  1.20540e+01
       L  6.45893e-05  2.68707e+00  3.73455e+00
6
# CELL(abcABC):  459.05226   459.05226   459.05226    90.00000    90.00000    90.00000  Step:          46  Bead:       0 x_centroid{angstrom}  cell{atomic_unit}
       C -4.07206e-01 -2.25171e-01  1.33376e-01
       O  7.59597e-01  3.38928e-01 -2.21537e-01
       H  1.52119e+00  9.76317e-01 -6.01444e-01
       H  1.13954e-01 -1.00673e+00  7.00690e-01
       L -9.18400e+00  1.42178e+00  1.23705e+01
       L -1.86310e-03  2.55038e+00  3.84060e+00
6
# CELL(abcABC):  459.05226   459.05226   459.05226    90.00000    90.00000    90.00000  Step:          47  Bead:       0 x_centroid{angstrom}  cell{atomic_unit}
       C -4.01850e-01 -2.25306e-01  1.32649e-01
       O  7.56277e-01  3.38379e-01 -2.20794e-01
       H  1.52549e+00  9.91290e-01 -6.03859e-01
       H  9.85493e-02 -1.01132e+00  6.99824e-01
       L -9.25293e+00  1.42088e+00  1.25530e+01
       L  1.85208e-02  2.44998e+00  3.92917e+00
6
# CELL(abcABC):  459.05226   459.05226   459.05226    90.00000    90.00000    90.00000  Step:          48  Bead:       0 x_centroid{angstrom}  cell{atomic_unit}
       C -3.96074e-01 -2.25291e-01  1.31635e-01
       O  7.53547e-01  3.38252e-01 -2.20071e-01
       H  1.51815e+00  1.00016e+00 -6.02884e-01
       H  8.04216e-02 -1.01833e+00  6.99400e-01
       L -9.25336e+00  1.44152e+00  1.25928e+01
       L -1.30575e-03  2.37256e+00  3.99642e+00
6
# CELL(abcABC):  459.05226   459.05226   459.05226    90.00000    90.00000    90.00000  Step:          49  Bead:       0 x_centroid{angstrom}  cell{atomic_unit}
       C -3.89932e-01 -2.25291e-01  1.30549e-01
       O  7.51414e-01  3.38679e-01 -2.19520e-01
       H  1.49909e+00  1.00195e+00 -5.98332e-01
       H  6.00738e-02 -1.02683e+00  6.99069e-01
       L -9.17324e+00  1.41995e+00  1.25307e+01
       L  2.07206e-02  2.27070e+00  3.99988e+00
6
# CELL(abcABC):  459.05226   459.05226   459.05226    90.00000    90.00000    90.00000  Step:          50  Bead:       0 x_centroid{angstrom}  cell{atomic_unit}
       C -3.83668e-01 -2.24822e-01  1.29436e-01
       O  7.50024e-01  3.39247e-01 -2.19129e-01
       H  1.46849e+00  9.97590e-01 -5.90679e-01
       H  3.80203e-02 -1.03699e+00  6.98600e-01
       L -9.00019e+00  1.44921e+00  1.23465e+01
       L  1.11877e-02  2.10618e+00  3.95853e+00
6
# CELL(abcABC):  459.05226   459.05226   459.05226    90.00000    90.00000    90.00000  Step:          51  Bead:       0 x_centroid{angstrom}  cell{atomic_unit}
       C -3.77305e-01 -2.24201e-01  1.28080e-01
       O  7.49311e-01  3.40152e-01 -2.18827e-01
       H  1.42697e+00  9.88001e-01 -5.80029e-01
       H  1.48485e-02 -1.04906e+00  6.99559e-01
       L -8.68617e+00  1.42463e+00  1.19863e+01
       L  3.87164e-02  1.93153e+00  3.88550e+00
6
# CELL(abcABC):  459.05226   459.05226   459.05226    90.00000    90.00000    90.00000  Step:          52  Bead:       0 x_centroid{angstrom}  cell{atomic_unit}
       C -3.71006e-01 -2.23471e-01  1.26564e-01
       O  7.49149e-01  3.41322e-01 -2.18618e-01
       H  1.37694e+00  9.74804e-01 -5.67734e-01
       H -7.84029e-03 -1.06299e+00  7.02320e-01
       L -8.27931e+00  1.35378e+00  1.15420e+01
       L  6.94390e-02  1.73936e+00  3.73835e+00
6
# CELL(abcABC):  459.05226   459.05226   459.05226    90.00000    90.00000    90.00000  Step:          53  Bead:       0 x_centroid{angstrom}  cell{atomic_unit}
       C -3.64891e-01 -2.22654e-01  1.25012e-01
       O  7.49531e-01  3.42584e-01 -2.18423e-01
       H  1.32138e+00  9.61939e-01 -5.56301e-01
       H -3.14398e-02 -1.07977e+00  7.06684e-01
       L -7.89522e+00  1.28912e+00  1.10000e+01
       L  9.24641e-02  1.55056e+00  3.56712e+00
6
# CELL(abcABC):  459.05226   459.05226   459.05226    90.00000    90.00000    90.00000  Step:          54  Bead:       0 x_centroid{angstrom}  cell{atomic_unit}
       C -3.59422e-01 -2.21387e-01  1.23447e-01
       O  7.50330e-01  3.43234e-01 -2.18056e-01
       H  1.26650e+00  9.54587e-01 -5.48587e-01
       H -5.46730e-02 -1.09770e+00  7.12240e-01
       L -7.46296e+00  1.20505e+00  1.03886e+01
       L  1.35422e-01  1.39189e+00  3.34748e+00
6
# CELL(abcABC):  459.05226   459.05226   459.05226    90.00000    90.00000    90.00000  Step:          55  Bead:       0 x_centroid{angstrom}  cell{atomic_unit}
       C -3.54210e-01 -2.19936e-01  1.21472e-01
       O  7.51001e-01  3.42973e-01 -2.17011e-01
       H  1.21616e+00  9.58337e-01 -5.47627e-01
       H -7.73596e-02 -1.11450e+00  7.18753e-01
       L -6.97233e+00  1.15811e+00  9.71012e+00
       L  1.42981e-01  1.29148e+00  3.08465e+00
6
# CELL(abcABC):  459.05226   459.05226   459.05226    90.00000    90.00000    90.00000  Step:          56  Bead:       0 x_centroid{angstrom}  cell{atomic_unit}
       C -3.49403e-01 -2.18363e-01  1.19193e-01
       O  7.51410e-01  3.41427e-01 -2.15101e-01
       H  1.17302e+00  9.79640e-01 -5.56451e-01
       H -9.82964e-02 -1.12991e+00  7.24949e-01
       L -6.43122e+00  1.09346e+00  8.96155e+00
       L  1.61441e-01  1.16346e+00  2.83054e+00
6
# CELL(abcABC):  459.05226   459.05226   459.05226    90.00000    90.00000    90.00000  Step:          57  Bead:       0 x_centroid{angstrom}  cell{atomic_unit}
       C -3.45211e-01 -2.16506e-01  1.16704e-01
       O  7.51647e-01  3.38321e-01 -2.12262e-01
       H  1.13771e+00  1.02040e+00 -5.76268e-01
       H -1.17047e-01 -1.14333e+00  7.29984e-01
       L -5.77601e+00  9.81975e-01  8.14343e+00
       L  1.53832e-01  9.89123e-01  2.50324e+00
6
# CELL(abcABC):  459.05226   459.05226   459.05226    90.00000    90.00000    90.00000  Step:          58  Bead:       0 x_centroid{angstrom}  cell{atomic_unit}
       C -3.41697e-01 -2.14406e-01  1.14197e-01
       O  7.52048e-01  3.33976e-01 -2.08858e-01
       H  1.10528e+00  1.07473e+00 -6.04304e-01
       H -1.33239e-01 -1.15352e+00  7.34562e-01
       L -5.04034e+00  8.24648e-01  7.21109e+00
       L  1.01798e-01  7.86951e-01  2.15073e+00
6
# CELL(abcABC):  459.05226   459.05226   459.05226    90.00000    90.00000    90.00000  Step:          59  Bead:       0 x_centroid{angstrom}  cell{atomic_unit}
       C -3.38750e-01 -2.12252e-01  1.11706e-01
       O  7.52907e-01  3.29139e-01 -2.05211e-01
       H  1.07048e+00  1.13458e+00 -6.34877e-01
       H -1.47574e-01 -1.16209e+00  7.37641e-01
       L -4.32503e+00  7.07477e-01  6.23425e+00
       L  8.94572e-02  5.82693e-01  1.83799e+00
6
# CELL(abcABC):  459.05226   459.05226   459.05226    90.00000    90.00000    90.00000  Step:          60  Bead:       0 x_centroid{angstrom}  cell{atomic_unit}
       C -3.36059e-01 -2.10072e-01  1.09081e-01
       O  7.54182e-01  3.24326e-01 -2.01317e-01
       H  1.02987e+00  1.19255e+00 -6.65119e-01
       H -1.59666e-01 -1.16947e+00  7.38093e-01
       L -3.52662e+00  5.76094e-01  5.16459e+00
       L  3.69831e-02  3.85823e-01  1.52735e+00
6
# CELL(abcABC):  459.05226   459.05226   459.05226    90.00000    90.00000    90.00000  Step:          61  Bead:       0 x_centroid{angstrom}  cell{atomic_unit}
       C -3.34081e-01 -2.07547e-01  1.06651e-01
       O  7.56313e-01  3.19434e-01 -1.97610e-01
       H  9.82774e-01  1.24443e+00 -6.92589e-01
       H -1.70386e-01 -1.17361e+00  7.36450e-01
       L -2.67002e+00  4.33286e-01  4.05276e+00
       L -5.43509e-02  2.52911e-01  1.21118e+00
6
# CELL(abcABC):  459.05226   459.05226   459.05226    90.00000    90.00000    90.00000  Step:          62  Bead:       0 x_centroid{angstrom}  cell{atomic_unit}
       C -3.32733e-01 -2.05150e-01  1.04531e-01
       O  7.59109e-01  3.14960e-01 -1.94256e-01
       H  9.29588e-01  1.28793e+00 -7.15397e-01
       H -1.78036e-01 -1.17454e+00  7.32065e-01
       L -1.85775e+00  3.19678e-01  2.91272e+00
       L -1.52789e-01  1.08818e-01  9.12927e-01
6
# CELL(abcABC):  459.05226   459.05226   459.05226    90.00000    90.00000    90.00000  Step:          63  Bead:       0 x_centroid{angstrom}  cell{atomic_unit}
       C -3.31400e-01 -2.02774e-01  1.02594e-01
       O  7.62139e-01  3.11031e-01 -1.91192e-01
       H  8.70618e-01  1.31953e+00 -7.33176e-01
       H -1.83429e-01 -1.17193e+00  7.25105e-01
       L -1.04355e+00  1.82614e-01  1.70591e+00
       L -2.69960e-01 -2.83129e-02  6.10838e-01
6
# CELL(abcABC):  459.05226   459.05226   459.05226    90.00000    90.00000    90.00000  Step:          64  Bead:       0 x_centroid{angstrom}  cell{atomic_unit}
       C -3.30217e-01 -2.00548e-01  1.00573e-01
       O  7.65264e-01  3.07724e-01 -1.88198e-01
       H  8.07786e-01  1.33955e+00 -7.45027e-01
       H -1.84690e-01 -1.16582e+00  7.14372e-01
       L -2.11248e-01  2.65583e-02  4.67284e-01
       L -3.85538e-01 -1.79239e-01  2.84777e-01
6
# CELL(abcABC):  459.05226   459.05226   459.05226    90.00000    90.00000    90.00000  Step:          65  Bead:       0 x_centroid{angstrom}  cell{atomic_unit}
       C -3.29964e-01 -1.98724e-01  9.87820e-02
       O  7.69095e-01  3.05355e-01 -1.85528e-01
       H  7.42658e-01  1.34679e+00 -7.50779e-01
       H -1.83790e-01 -1.15703e+00  6.99938e-01
       L  6.15519e-01 -1.59048e-01 -7.57893e-01
       L -4.56494e-01 -2.81170e-01 -6.07972e-02
6
# CELL(abcABC):  459.05226   459.05226   459.05226    90.00000    90.00000    90.00000  Step:          66  Bead:       0 x_centroid{angstrom}  cell{atomic_unit}
       C -3.30312e-01 -1.96866e-01  9.68965e-02