6
# CELL(abcABC):  459.05226   459.05226   459.05226    90.00000    90.00000    90.00000  Step:           0  Bead:       0 x_centroid{angstrom}  cell{atomic_unit}
       C -3.39887e-01 -1.13437e-01  8.06659e-02
       O  8.43483e-01  2.62672e-01 -1.81512e-01
       H -7.35799e-02  8.16467e-01 -6.61432e-01
       H -4.30016e-01 -9.65701e-01  7.62278e-01
       L  0.00000e+00  0.00000e+00  0.00000e+00
       L  0.00000e+00  0.00000e+00  0.00000e+00
6
# CELL(abcABC):  459.05226   459.05226   459.05226    90.00000    90.00000    90.00000  Step:           1  Bead:       0 x_centroid{angstrom}  cell{atomic_unit}
       C -3.40060e-01 -1.13709e-01  8.16577e-02
       O  8.44448e-01  2.63505e-01 -1.82414e-01
       H -8.13818e-02  8.08697e-01 -6.56220e-01
       H -4.35459e-01 -9.67612e-01  7.59367e-01
       L  1.62573e-01 -5.33387e-01  4.50036e-01
       L -1.93589e-01 -2.36973e-02 -1.12447e-01
6
# CELL(abcABC):  459.05226   459.05226   459.05226    90.00000    90.00000    90.00000  Step:           2  Bead:       0 x_centroid{angstrom}  cell{atomic_unit}
       C -3.40517e-01 -1.13988e-01  8.24577e-02
       O  8.45671e-01  2.64328e-01 -1.83169e-01
       H -8.99497e-02  8.01627e-01 -6.51038e-01
       H -4.40808e-01 -9.70022e-01  7.56434e-01
       L  3.05078e-01 -1.03338e+00  8.99487e-01
       L -4.12169e-01 -4.26753e-03 -1.78795e-01
6
# CELL(abcABC):  459.05226   459.05226   459.05226    90.00000    90.00000    90.00000  Step:           3  Bead:       0 x_centroid{angstrom}  cell{atomic_unit}
       C -3.41215e-01 -1.13992e-01  8.33893e-02
       O  8.47093e-01  2.65116e-01 -1.84003e-01
       H -9.92293e-02  7.93513e-01 -6.45925e-01
       H -4.45751e-01 -9.74147e-01  7.53254e-01
       L  4.50693e-01 -1.50931e+00  1.32649e+00
       L -6.22273e-01  6.44450e-02 -2.36144e-01
6
# CELL(abcABC):  459.05226   459.05226   459.05226    90.00000    90.00000    90.00000  Step:           4  Bead:       0 x_centroid{angstrom}  cell{atomic_unit}
       C -3.41629e-01 -1.13616e-01  8.42435e-02
       O  8.48444e-01  2.65581e-01 -1.84635e-01
       H -1.10220e-01  7.87325e-01 -6.42895e-01
       H -4.51237e-01 -9.79652e-01  7.49900e-01
       L  5.70636e-01 -1.95853e+00  1.70147e+00
       L -8.13797e-01  2.09731e-01 -2.81953e-01
6
# CELL(abcABC):  459.05226   459.05226   459.05226    90.00000    90.00000    90.00000  Step:           5  Bead:       0 x_centroid{angstrom}  cell{atomic_unit}
       C -3.41754e-01 -1.13426e-01  8.49250e-02
       O  8.49670e-01  2.66072e-01 -1.85074e-01
       H -1.23541e-01  7.82817e-01 -6.40365e-01
       H -4.55850e-01 -9.85057e-01  7.46021e-01
       L  6.87280e-01 -2.33346e+00  2.10837e+00
       L -9.83465e-01  3.17544e-01 -3.21628e-01
6
# CELL(abcABC):  459.05226   459.05226   459.05226    90.00000    90.00000    90.00000  Step:           6  Bead:       0 x_centroid{angstrom}  cell{atomic_unit}
       C -3.41685e-01 -1.13193e-01  8.54307e-02
       O  8.50929e-01  2.66479e-01 -1.85262e-01
       H -1.39502e-01  7.78836e-01 -6.38741e-01
       H -4.60704e-01 -9.90160e-01  7.41170e-01
       L  7.85017e-01 -2.69806e+00  2.47448e+00
       L -1.06715e+00  3.95797e-01 -3.58085e-01
6
# CELL(abcABC):  459.05226   459.05226   459.05226    90.00000    90.00000    90.00000  Step:           7  Bead:       0 x_centroid{angstrom}  cell{atomic_unit}
       C -3.41445e-01 -1.13242e-01  8.57243e-02
       O  8.52193e-01  2.66883e-01 -1.85183e-01
       H -1.58686e-01  7.77375e-01 -6.38020e-01
       H -4.64458e-01 -9.94359e-01  7.35534e-01
       L  8.55397e-01 -3.06902e+00  2.80124e+00
       L -1.10827e+00  4.62137e-01 -3.82326e-01
6
# CELL(abcABC):  459.05226   459.05226   459.05226    90.00000    90.00000    90.00000  Step:           8  Bead:       0 x_centroid{angstrom}  cell{atomic_unit}
       C -3.40592e-01 -1.12961e-01  8.59026e-02
       O  8.53398e-01  2.66805e-01 -1.84860e-01
       H -1.83496e-01  7.77713e-01 -6.38884e-01
       H -4.68932e-01 -9.96666e-01  7.28987e-01
       L  8.71057e-01 -3.44824e+00  3.11096e+00
       L -1.15013e+00  5.52343e-01 -4.06937e-01
6
# CELL(abcABC):  459.05226   459.05226   459.05226    90.00000    90.00000    90.00000  Step:           9  Bead:       0 x_centroid{angstrom}  cell{atomic_unit}
       C -3.39085e-01 -1.12535e-01  8.59685e-02
       O  8.54520e-01  2.66449e-01 -1.84473e-01
       H -2.14388e-01  7.79174e-01 -6.39044e-01
       H -4.73770e-01 -9.97394e-01  7.22028e-01
       L  8.48969e-01 -3.80729e+00  3.47591e+00
       L -1.19903e+00  6.35592e-01 -4.09981e-01
6
# CELL(abcABC):  459.05226   459.05226   459.05226    90.00000    90.00000    90.00000  Step:          10  Bead:       0 x_centroid{angstrom}  cell{atomic_unit}
       C -3.37138e-01 -1.11717e-01  8.58265e-02
       O  8.55864e-01  2.65696e-01 -1.83982e-01
       H -2.52972e-01  7.80665e-01 -6.38970e-01
       H -4.79678e-01 -9.96592e-01  7.15673e-01
       L  7.85206e-01 -4.12022e+00  3.83900e+00
       L -1.21242e+00  7.81704e-01 -4.40822e-01
6
# CELL(abcABC):  459.05226   459.05226   459.05226    90.00000    90.00000    90.00000  Step:          11  Bead:       0 x_centroid{angstrom}  cell{atomic_unit}
       C -3.34430e-01 -1.10256e-01  8.50577e-02
       O  8.57302e-01  2.64435e-01 -1.83052e-01
       H -3.01516e-01  7.80603e-01 -6.37707e-01
       H -4.86145e-01 -9.93859e-01  7.08608e-01
       L  6.58338e-01 -4.37565e+00  4.22294e+00
       L -1.23149e+00  9.23851e-01 -4.62240e-01
6
# CELL(abcABC):  459.05226   459.05226   459.05226    90.00000    90.00000    90.00000  Step:          12  Bead:       0 x_centroid{angstrom}  cell{atomic_unit}
       C -3.31010e-01 -1.07910e-01  8.37522e-02
       O  8.58869e-01  2.62582e-01 -1.81802e-01
       H -3.60537e-01  7.79309e-01 -6.35172e-01
       H -4.92628e-01 -9.91096e-01  7.01595e-01
       L  5.05653e-01 -4.57649e+00  4.53650e+00
       L -1.30380e+00  1.10791e+00 -4.22532e-01
6
# CELL(abcABC):  459.05226   459.05226   459.05226    90.00000    90.00000    90.00000  Step:          13  Bead:       0 x_centroid{angstrom}  cell{atomic_unit}
       C -3.26647e-01 -1.04682e-01  8.16937e-02
       O  8.60641e-01  2.60081e-01 -1.80154e-01
       H -4.31353e-01  7.76065e-01 -6.29206e-01
       H -5.01805e-01 -9.86620e-01  6.93779e-01
       L  3.25800e-01 -4.76154e+00  4.87846e+00
       L -1.36437e+00  1.28326e+00 -3.56546e-01
6
# CELL(abcABC):  459.05226   459.05226   459.05226    90.00000    90.00000    90.00000  Step:          14  Bead:       0 x_centroid{angstrom}  cell{atomic_unit}
       C -3.20976e-01 -1.00543e-01  7.88687e-02
       O  8.62344e-01  2.57062e-01 -1.78133e-01
       H -5.13998e-01  7.69674e-01 -6.20235e-01
       H -5.13640e-01 -9.81644e-01  6.86139e-01
       L  1.72870e-01 -4.90069e+00  5.23839e+00
       L -1.43942e+00  1.46637e+00 -2.56774e-01
6
# CELL(abcABC):  459.05226   459.05226   459.05226    90.00000    90.00000    90.00000  Step:          15  Bead:       0 x_centroid{angstrom}  cell{atomic_unit}
       C -3.14026e-01 -9.56333e-02  7.56344e-02
       O  8.63938e-01  2.53586e-01 -1.75954e-01
       H -6.07883e-01  7.59435e-01 -6.07313e-01
       H -5.27773e-01 -9.74760e-01  6.76922e-01
       L  1.81386e-02 -4.94090e+00  5.60350e+00
       L -1.47446e+00  1.55450e+00 -1.60016e-01
6
# CELL(abcABC):  459.05226   459.05226   459.05226    90.00000    90.00000    90.00000  Step:          16  Bead:       0 x_centroid{angstrom}  cell{atomic_unit}
       C -3.06248e-01 -8.96924e-02  7.17799e-02
       O  8.65676e-01  2.49735e-01 -1.73542e-01
       H -7.11528e-01  7.42534e-01 -5.90129e-01
       H -5.44305e-01 -9.67582e-01  6.67135e-01
       L -1.46587e-01 -4.95585e+00  5.92916e+00
       L -1.48734e+00  1.66425e+00 -4.64577e-02
6
# CELL(abcABC):  459.05226   459.05226   459.05226    90.00000    90.00000    90.00000  Step:          17  Bead:       0 x_centroid{angstrom}  cell{atomic_unit}
       C -2.97360e-01 -8.31292e-02  6.69150e-02
       O  8.67193e-01  2.45585e-01 -1.70725e-01
       H -8.22934e-01  7.20917e-01 -5.67396e-01
       H -5.62808e-01 -9.58314e-01  6.57446e-01
       L -2.88138e-01 -4.96208e+00  6.22804e+00
       L -1.47927e+00  1.71604e+00  6.90326e-02
6
# CELL(abcABC):  459.05226   459.05226   459.05226    90.00000    90.00000    90.00000  Step:          18  Bead:       0 x_centroid{angstrom}  cell{atomic_unit}
       C -2.87709e-01 -7.57504e-02  6.15738e-02
       O  8.68505e-01  2.41068e-01 -1.67688e-01
       H -9.39112e-01  6.94251e-01 -5.41052e-01
       H -5.82378e-01 -9.47923e-01  6.46345e-01
       L -4.34654e-01 -4.92293e+00  6.46333e+00
       L -1.47824e+00  1.77505e+00  1.73161e-01
6
# CELL(abcABC):  459.05226   459.05226   459.05226    90.00000    90.00000    90.00000  Step:          19  Bead:       0 x_centroid{angstrom}  cell{atomic_unit}
       C -2.77381e-01 -6.75775e-02  5.59023e-02
       O  8.69407e-01  2.36259e-01 -1.64647e-01
       H -1.05630e+00  6.61648e-01 -5.10875e-01
       H -6.02502e-01 -9.36441e-01  6.35317e-01
       L -5.92740e-01 -4.83863e+00  6.61718e+00
       L -1.47326e+00  1.79257e+00  3.17751e-01
6
# CELL(abcABC):  459.05226   459.05226   459.05226    90.00000    90.00000    90.00000  Step:          20  Bead:       0 x_centroid{angstrom}  cell{atomic_unit}
       C -2.66810e-01 -5.87105e-02  4.95193e-02
       O  8.69996e-01  2.31200e-01 -1.61225e-01
       H -1.17120e+00  6.24042e-01 -4.76818e-01
       H -6.22816e-01 -9.24290e-01  6.22892e-01
       L -7.60216e-01 -4.65627e+00  6.74159e+00
       L -1.46069e+00  1.79426e+00  4.01967e-01
6
# CELL(abcABC):  459.05226   459.05226   459.05226    90.00000    90.00000    90.00000  Step:          21  Bead:       0 x_centroid{angstrom}  cell{atomic_unit}
       C -2.56751e-01 -4.93750e-02  4.27107e-02
       O  8.70439e-01  2.26017e-01 -1.57660e-01
       H -1.27919e+00  5.82397e-01 -4.39722e-01
       H -6.41656e-01 -9.11695e-01  6.10218e-01
       L -9.16206e-01 -4.46474e+00  6.84474e+00
       L -1.44831e+00  1.75499e+00  5.12827e-01
6
# CELL(abcABC):  459.05226   459.05226   459.05226    90.00000    90.00000    90.00000  Step:          22  Bead:       0 x_centroid{angstrom}  cell{atomic_unit}
       C -2.47284e-01 -3.98756e-02  3.58767e-02
       O  8.70700e-01  2.20868e-01 -1.54225e-01
       H -1.37875e+00  5.37556e-01 -3.99752e-01
       H -6.58951e-01 -8.98412e-01  5.97053e-01
       L -1.04984e+00 -4.22502e+00  6.91973e+00
       L -1.46694e+00  1.69592e+00  6.48700e-01
6
# CELL(abcABC):  459.05226   459.05226   459.05226    90.00000    90.00000    90.00000  Step:          23  Bead:       0 x_centroid{angstrom}  cell{atomic_unit}
       C -2.38974e-01 -3.09045e-02  2.88765e-02
       O  8.71100e-01  2.16087e-01 -1.50815e-01
       H -1.46901e+00  4.93174e-01 -3.57200e-01
       H -6.73969e-01 -8.85175e-01  5.83725e-01
       L -1.20108e+00 -3.90982e+00  6.87668e+00
       L -1.49350e+00  1.63084e+00  8.04982e-01
6
# CELL(abcABC):  459.05226   459.05226   459.05226    90.00000    90.00000    90.00000  Step:          24  Bead:       0 x_centroid{angstrom}  cell{atomic_unit}
       C -2.31809e-01 -2.21719e-02  2.20163e-02
       O  8.71553e-01  2.11496e-01 -1.47582e-01
       H -1.54892e+00  4.48436e-01 -3.12982e-01
       H -6.86531e-01 -8.71747e-01  5.69918e-01
       L -1.35019e+00 -3.61343e+00  6.74943e+00
       L -1.52242e+00  1.57127e+00  9.65134e-01
6
# CELL(abcABC):  459.05226   459.05226   459.05226    90.00000    90.00000    90.00000  Step:          25  Bead:       0 x_centroid{angstrom}  cell{atomic_unit}
       C -2.26359e-01 -1.36865e-02  1.54025e-02
       O  8.72415e-01  2.07022e-01 -1.44706e-01
       H -1.61726e+00  4.05298e-01 -2.66860e-01
       H -6.96780e-01 -8.58824e-01  5.56978e-01
       L -1.43813e+00 -3.30554e+00  6.54939e+00
       L -1.52809e+00  1.47761e+00  1.10563e+00
6
# CELL(abcABC):  459.05226   459.05226   459.05226    90.00000    90.00000    90.00000  Step:          26  Bead:       0 x_centroid{angstrom}  cell{atomic_unit}
       C -2.23179e-01 -5.85174e-03  9.03474e-03
       O  8.74069e-01  2.02898e-01 -1.42172e-01
       H -1.67584e+00  3.65552e-01 -2.19976e-01
       H -7.02308e-01 -8.47109e-01  5.45856e-01
       L -1.54424e+00 -2.96564e+00  6.27868e+00
       L -1.48401e+00  1.37966e+00  1.20093e+00
6
# CELL(abcABC):  459.05226   459.05226   459.05226    90.00000    90.00000    90.00000  Step:          27  Bead:       0 x_centroid{angstrom}  cell{atomic_unit}
       C -2.21761e-01  1.01529e-03  3.24226e-03
       O  8.76102e-01  1.99362e-01 -1.39983e-01
       H -1.72349e+00  3.29957e-01 -1.74254e-01
       H -7.03792e-01 -8.37337e-01  5.34506e-01
       L -1.64758e+00 -2.61548e+00  6.01586e+00
       L -1.43883e+00  1.25213e+00  1.27246e+00
6
# CELL(abcABC):  459.05226   459.05226   459.05226    90.00000    90.00000    90.00000  Step:          28  Bead:       0 x_centroid{angstrom}  cell{atomic_unit}
       C -2.22426e-01  7.35083e-03 -1.97323e-03
       O  8.78731e-01  1.96112e-01 -1.38124e-01
       H -1.76081e+00  3.00171e-01 -1.31855e-01
       H -7.00260e-01 -8.31574e-01  5.24908e-01
       L -1.74093e+00 -2.22870e+00  5.70618e+00
       L -1.40162e+00  1.07884e+00  1.29613e+00
6
# CELL(abcABC):  459.05226   459.05226   459.05226    90.00000    90.00000    90.00000  Step:          29  Bead:       0 x_centroid{angstrom}  cell{atomic_unit}
       C -2.25396e-01  1.28548e-02 -6.44587e-03
       O  8.82197e-01  1.93361e-01 -1.36635e-01
       H -1.78846e+00  2.75249e-01 -9.30718e-02
       H -6.92185e-01 -8.28727e-01  5.15923e-01
       L -1.85080e+00 -1.78531e+00  5.37217e+00
       L -1.36532e+00  9.15495e-01  1.37965e+00
6
# CELL(abcABC):  459.05226   459.05226   459.05226    90.00000    90.00000    90.00000  Step:          30  Bead:       0 x_centroid{angstrom}  cell{atomic_unit}
       C -2.30142e-01  1.76293e-02 -1.04012e-02
       O  8.86054e-01  1.90932e-01 -1.35259e-01
       H -1.80718e+00  2.55912e-01 -5.83222e-02
       H -6.78146e-01 -8.27897e-01  5.06596e-01
       L -1.91249e+00 -1.32059e+00  4.99249e+00
       L -1.29136e+00  7.68085e-01  1.49671e+00
6
# CELL(abcABC):  459.05226   459.05226   459.05226    90.00000    90.00000    90.00000  Step:          31  Bead:       0 x_centroid{angstrom}  cell{atomic_unit}
       C -2.36457e-01  2.14349e-02 -1.41473e-02
       O  8.90310e-01  1.88984e-01 -1.33664e-01
       H -1.81800e+00  2.41653e-01 -2.81892e-02
       H -6.59637e-01 -8.28261e-01  4.95988e-01
       L -1.96847e+00 -8.42287e-01  4.56003e+00
       L -1.23984e+00  6.44811e-01  1.57758e+00
6
# CELL(abcABC):  459.05226   459.05226   459.05226    90.00000    90.00000    90.00000  Step:          32  Bead:       0 x_centroid{angstrom}  cell{atomic_unit}
       C -2.44391e-01  2.44540e-02 -1.71342e-02
       O  8.94935e-01  1.87418e-01 -1.32405e-01
       H -1.82006e+00  2.32463e-01 -2.56024e-03
       H -6.36444e-01 -8.30403e-01  4.86144e-01
       L -1.99114e+00 -3.20524e-01  4.09685e+00
       L -1.21768e+00  5.25689e-01  1.69106e+00
6
# CELL(abcABC):  459.05226   459.05226   459.05226    90.00000    90.00000    90.00000  Step:          33  Bead:       0 x_centroid{angstrom}  cell{atomic_unit}
       C -2.53756e-01  2.66379e-02 -1.97591e-02
       O  8.99814e-01  1.86162e-01 -1.31193e-01
       H -1.81354e+00  2.31286e-01  1.84764e-02
       H -6.08793e-01 -8.35527e-01  4.77321e-01
       L -2.02983e+00  2.16379e-01  3.66745e+00
       L -1.21626e+00  3.80510e-01  1.81533e+00
6
# CELL(abcABC):  459.05226   459.05226   459.05226    90.00000    90.00000    90.00000  Step:          34  Bead:       0 x_centroid{angstrom}  cell{atomic_unit}
       C -2.63765e-01  2.81852e-02 -2.16688e-02
       O  9.04390e-01  1.85276e-01 -1.30307e-01
       H -1.79704e+00  2.35885e-01  3.59695e-02
       H -5.78648e-01 -8.44686e-01  4.68732e-01
       L -2.02784e+00  7.06604e-01  3.16411e+00
       L -1.24503e+00  2.27313e-01  1.93193e+00
6
# CELL(abcABC):  459.05226   459.05226   459.05226    90.00000    90.00000    90.00000  Step:          35  Bead:       0 x_centroid{angstrom}  cell{atomic_unit}
       C -2.74347e-01  2.90472e-02 -2.30685e-02
       O  9.08750e-01  1.84845e-01 -1.29621e-01
       H -1.77146e+00  2.46289e-01  4.90443e-02
       H -5.47335e-01 -8.58701e-01  4.61658e-01
       L -2.06698e+00  1.20706e+00  2.69413e+00
       L -1.21515e+00  7.56603e-02  2.00671e+00
6
# CELL(abcABC):  459.05226   459.05226   459.05226    90.00000    90.00000    90.00000  Step:          36  Bead:       0 x_centroid{angstrom}  cell{atomic_unit}
       C -2.85316e-01  2.93032e-02 -2.38999e-02
       O  9.12816e-01  1.84888e-01 -1.29226e-01
       H -1.73721e+00  2.62141e-01  5.89972e-02
       H -5.15405e-01 -8.78466e-01  4.55592e-01
       L -2.08806e+00  1.69988e+00  2.24725e+00
       L -1.20275e+00 -8.88166e-02  2.00724e+00
6
# CELL(abcABC):  459.05226   459.05226   459.05226    90.00000    90.00000    90.00000  Step:          37  Bead:       0 x_centroid{angstrom}  cell{atomic_unit}
       C -2.96322e-01  2.89902e-02 -2.42329e-02
       O  9.16316e-01  1.85324e-01 -1.29036e-01
       H -1.69276e+00  2.82690e-01  6.46424e-02
       H -4.84289e-01 -9.02410e-01  4.51142e-01
       L -2.12888e+00  2.17054e+00  1.81495e+00
       L -1.13356e+00 -2.05325e-01  1.99488e+00
6
# CELL(abcABC):  459.05226   459.05226   459.05226    90.00000    90.00000    90.00000  Step:          38  Bead:       0 x_centroid{angstrom}  cell{atomic_unit}
       C -3.07435e-01  2.80036e-02 -2.37812e-02
       O  9.19353e-01  1.86247e-01 -1.29157e-01
       H -1.63921e+00  3.06392e-01  6.58492e-02
       H -4.53668e-01 -9.29212e-01  4.46725e-01
       L -2.20040e+00  2.63248e+00  1.36913e+00
       L -9.81114e-01 -2.92512e-01  1.95476e+00
6
# CELL(abcABC):  459.05226   459.05226   459.05226    90.00000    90.00000    90.00000  Step:          39  Bead:       0 x_centroid{angstrom}  cell{atomic_unit}
       C -3.18237e-01  2.65371e-02 -2.24365e-02
       O  9.21617e-01  1.87268e-01 -1.29541e-01
       H -1.57504e+00  3.36220e-01  6.21180e-02
       H -4.25076e-01 -9.57937e-01  4.40750e-01
       L -2.27047e+00  3.03492e+00  9.49626e-01
       L -8.71692e-01 -3.68669e-01  1.97204e+00
6
# CELL(abcABC):  459.05226   459.05226   459.05226    90.00000    90.00000    90.00000  Step:          40  Bead:       0 x_centroid{angstrom}  cell{atomic_unit}
       C -3.28676e-01  2.42999e-02 -2.06607e-02
       O  9.23073e-01  1.88719e-01 -1.30020e-01
       H -1.50010e+00  3.69951e-01  5.42746e-02
       H -3.98799e-01 -9.88201e-01  4.35275e-01
       L -2.32526e+00  3.39443e+00  5.27176e-01
       L -7.23305e-01 -4.34475e-01  1.95375e+00
6
# CELL(abcABC):  459.05226   459.05226   459.05226    90.00000    90.00000    90.00000  Step:          41  Bead:       0 x_centroid{angstrom}  cell{atomic_unit}
       C -3.38582e-01  2.14322e-02 -1.84074e-02
       O  9.23631e-01  1.90481e-01 -1.30547e-01
       H -1.41495e+00  4.05822e-01  4.40096e-02
       H -3.74833e-01 -1.01802e+00  4.27269e-01
       L -2.32515e+00  3.68819e+00  9.52111e-02
       L -5.86350e-01 -4.63318e-01  1.99176e+00
6
# CELL(abcABC):  459.05226   459.05226   459.05226    90.00000    90.00000    90.00000  Step:          42  Bead:       0 x_centroid{angstrom}  cell{atomic_unit}
       C -3.47394e-01  1.74833e-02 -1.55576e-02
       O  9.23211e-01  1.92785e-01 -1.31204e-01
       H -1.32334e+00  4.44018e-01  3.02791e-02
       H -3.54899e-01 -1.04589e+00  4.17679e-01
       L -2.27989e+00  3.99383e+00 -2.99488e-01
       L -3.81743e-01 -4.88857e-01  2.00789e+00
6
# CELL(abcABC):  459.05226   459.05226   459.05226    90.00000    90.00000    90.00000  Step:          43  Bead:       0 x_centroid{angstrom}  cell{atomic_unit}
       C -3.54541e-01  1.23460e-02 -1.21766e-02
       O  9.21792e-01  1.95458e-01 -1.31907e-01
       H -1.23217e+00  4.87879e-01  1.36310e-02
       H -3.38545e-01 -1.07108e+00  4.05400e-01
       L -2.20154e+00  4.23890e+00 -6.70323e-01
       L -1.47314e-01 -5.12183e-01  1.99996e+00
6
# CELL(abcABC):  459.05226   459.05226   459.05226    90.00000    90.00000    90.00000  Step:          44  Bead:       0 x_centroid{angstrom}  cell{atomic_unit}
       C -3.59447e-01  5.72682e-03 -8.17537e-03
       O  9.19308e-01  1.98552e-01 -1.32814e-01
       H -1.14661e+00  5.39298e-01 -5.48569e-03
       H -3.26378e-01 -1.09284e+00  3.91422e-01
       L -2.12599e+00  4.50578e+00 -1.01160e+00
       L  5.58082e-02 -5.79337e-01  2.01580e+00
6
# CELL(abcABC):  459.05226   459.05226   459.05226    90.00000    90.00000    90.00000  Step:          45  Bead:       0 x_centroid{angstrom}  cell{atomic_unit}
       C -3.61248e-01 -2.62480e-03 -3.74929e-03
       O  9.15706e-01  2.01896e-01 -1.33897e-01
       H -1.07503e+00  6.02574e-01 -2.68050e-02
       H -3.19468e-01 -1.10977e+00  3.77353e-01
       L -2.03406e+00  4.69862e+00 -1.35660e+00
       L  2.14730e-01 -5.99840e-01  2.05517e+00
6
# CELL(abcABC):  459.05226   459.05226   459.05226    90.00000    90.00000    90.00000  Step:          46  Bead:       0 x_centroid{angstrom}  cell{atomic_unit}
       C -3.59677e-01 -1.29145e-02  9.10624e-04
       O  9.11011e-01  2.05474e-01 -1.34879e-01
       H -1.01943e+00  6.79656e-01 -5.03568e-02
       H -3.19390e-01 -1.12115e+00  3.61129e-01
       L -1.94092e+00  4.87175e+00 -1.72552e+00
       L  3.89296e-01 -5.73433e-01  2.10713e+00
6
# CELL(abcABC):  459.05226   459.05226   459.05226    90.00000    90.00000    90.00000  Step:          47  Bead:       0 x_centroid{angstrom}  cell{atomic_unit}
       C -3.55415e-01 -2.47940e-02  5.84068e-03
       O  9.05418e-01  2.09187e-01 -1.35962e-01
       H -9.76021e-01  7.67428e-01 -7.50665e-02
       H -3.25010e-01 -1.12641e+00  3.44426e-01
       L -1.81122e+00  4.96956e+00 -2.04156e+00
       L  6.19958e-01 -4.70387e-01  2.18218e+00
6
# CELL(abcABC):  459.05226   459.05226   459.05226    90.00000    90.00000    90.00000  Step:          48  Bead:       0 x_centroid{angstrom}  cell{atomic_unit}
       C -3.48376e-01 -3.74996e-02  1.05569e-02
       O  8.98633e-01  2.12936e-01 -1.36854e-01
       H -9.40940e-01  8.60030e-01 -9.89369e-02
       H -3.36465e-01 -1.12718e+00  3.26336e-01
       L -1.64078e+00  4.98876e+00 -2.31894e+00
       L  8.18353e-01 -3.78140e-01  2.31063e+00
6
# CELL(abcABC):  459.05226   459.05226   459.05226    90.00000    90.00000    90.00000  Step:          49  Bead:       0 x_centroid{angstrom}  cell{atomic_unit}
       C -3.39379e-01 -5.00795e-02  1.52774e-02
       O  8.91050e-01  2.16514e-01 -1.37666e-01
       H -9.09720e-01  9.49276e-01 -1.22042e-01
       H -3.54733e-01 -1.12336e+00  3.06139e-01
       L -1.48672e+00  4.96037e+00 -2.56586e+00
       L  1.04782e+00 -2.86360e-01  2.43086e+00
6
# CELL(abcABC):  459.05226   459.05226   459.05226    90.00000    90.00000    90.00000  Step:          50  Bead:       0 x_centroid{angstrom}  cell{atomic_unit}
       C -3.28866e-01 -6.23482e-02  1.97208e-02
       O  8.82820e-01  2.20158e-01 -1.38429e-01
       H -8.79900e-01  1.02957e+00 -1.43892e-01
       H -3.79396e-01 -1.11527e+00  2.87238e-01
       L -1.34643e+00  4.82320e+00 -2.78827e+00
       L  1.29310e+00 -1.92082e-01  2.51210e+00
6
# CELL(abcABC):  459.05226   459.05226   459.05226    90.00000    90.00000    90.00000  Step:          51  Bead:       0 x_centroid{angstrom}  cell{atomic_unit}
       C -3.16781e-01 -7.34637e-02  2.39719e-02
       O  8.73879e-01  2.23565e-01 -1.39197e-01
       H -8.52102e-01  1.09922e+00 -1.63735e-01
       H -4.09496e-01 -1.10648e+00  2.68688e-01
       L -1.17426e+00  4.63650e+00 -2.96773e+00
       L  1.50418e+00 -1.15163e-01  2.55882e+00
6
# CELL(abcABC):  459.05226   459.05226   459.05226    90.00000    90.00000    90.00000  Step:          52  Bead:       0 x_centroid{angstrom}  cell{atomic_unit}
       C -3.03619e-01 -8.34052e-02  2.80498e-02
       O  8.64429e-01  2.26908e-01 -1.39984e-01
       H -8.24082e-01  1.15644e+00 -1.82302e-01
       H -4.44547e-01 -1.09823e+00  2.51223e-01
       L -9.63664e-01  4.41941e+00 -3.14011e+00
       L  1.66068e+00 -3.67848e-02  2.60513e+00
6
# CELL(abcABC):  459.05226   459.05226   459.05226    90.00000    90.00000    90.00000  Step:          53  Bead:       0 x_centroid{angstrom}  cell{atomic_unit}
       C -2.89866e-01 -9.17662e-02  3.18262e-02
       O  8.54895e-01  2.30123e-01 -1.40825e-01
       H -7.97335e-01  1.19957e+00 -1.98038e-01
       H -4.84065e-01 -1.09273e+00  2.35371e-01
       L -6.84691e-01  4.20052e+00 -3.29240e+00
       L  1.79350e+00  9.17407e-02  2.64667e+00
6
# CELL(abcABC):  459.05226   459.05226   459.05226    90.00000    90.00000    90.00000  Step:          54  Bead:       0 x_centroid{angstrom}  cell{atomic_unit}
       C -2.75877e-01 -9.82989e-02  3.49222e-02
       O  8.45714e-01  2.32958e-01 -1.41344e-01
       H -7.72879e-01  1.23056e+00 -2.12196e-01
       H -5.29713e-01 -1.09081e+00  2.20936e-01
       L -3.47433e-01  3.97653e+00 -3.47568e+00
       L  1.88901e+00  2.36674e-01  2.70482e+00
6
# CELL(abcABC):  459.05226   459.05226   459.05226    90.00000    90.00000    90.00000  Step:          55  Bead:       0 x_centroid{angstrom}  cell{atomic_unit}
       C -2.61335e-01 -1.02948e-01  3.76198e-02
       O  8.36692e-01  2.35465e-01 -1.41868e-01
       H -7.53276e-01  1.24856e+00 -2.22973e-01
       H -5.79610e-01 -1.09317e+00  2.07929e-01
       L -3.22098e-02  3.77488e+00 -3.61570e+00
       L  1.96945e+00  3.36060e-01  2.76087e+00
6
# CELL(abcABC):  459.05226   459.05226   459.05226    90.00000    90.00000    90.00000  Step:          56  Bead:       0 x_centroid{angstrom}  cell{atomic_unit}
       C -2.47029e-01 -1.05970e-01  3.99726e-02
       O  8.28246e-01  2.37634e-01 -1.42425e-01
       H -7.37537e-01  1.25519e+00 -2.30203e-01
       H -6.31972e-01 -1.09811e+00  1.96006e-01
       L  3.39014e-01  3.50837e+00 -3.70884e+00
       L  2.00398e+00  4.21710e-01  2.78503e+00
6
# CELL(abcABC):  459.05226   459.05226   459.05226    90.00000    90.00000    90.00000  Step:          57  Bead:       0 x_centroid{angstrom}  cell{atomic_unit}
       C -2.33505e-01 -1.07598e-01  4.16172e-02
       O  8.20701e-01  2.39401e-01 -1.42713e-01
       H -7.25958e-01  1.25134e+00 -2.33019e-01
       H -6.85161e-01 -1.10286e+00  1.83885e-01
       L  6.94178e-01  3.24647e+00 -3.80343e+00
       L  2.06331e+00  5.94442e-01  2.72920e+00
6
# CELL(abcABC):  459.05226   459.05226   459.05226    90.00000    90.00000    90.00000  Step:          58  Bead:       0 x_centroid{angstrom}  cell{atomic_unit}
       C -2.21240e-01 -1.08103e-01  4.33175e-02
       O  8.14469e-01  2.40894e-01 -1.43187e-01
       H -7.19948e-01  1.23669e+00 -2.33678e-01
       H -7.38635e-01 -1.10583e+00  1.71846e-01
       L  1.08429e+00  2.95909e+00 -3.81153e+00
       L  2.11468e+00  7.72222e-01  2.66675e+00
6
# CELL(abcABC):  459.05226   459.05226   459.05226    90.00000    90.00000    90.00000  Step:          59  Bead:       0 x_centroid{angstrom}  cell{atomic_unit}
       C -2.10848e-01 -1.07770e-01  4.47997e-02
       O  8.09836e-01  2.42218e-01 -1.43696e-01
       H -7.18718e-01  1.21213e+00 -2.31317e-01
       H -7.90389e-01 -1.10615e+00  1.59914e-01
       L  1.48200e+00  2.59479e+00 -3.80517e+00
       L  2.13630e+00  9.53785e-01  2.63842e+00
6
# CELL(abcABC):  459.05226   459.05226   459.05226    90.00000    90.00000    90.00000  Step:          60  Bead:       0 x_centroid{angstrom}  cell{atomic_unit}
       C -2.02852e-01 -1.06541e-01  4.60393e-02
       O  8.07090e-01  2.43288e-01 -1.44258e-01
       H -7.22353e-01  1.17799e+00 -2.24737e-01
       H -8.38674e-01 -1.10357e+00  1.47485e-01
       L  1.83328e+00  2.21819e+00 -3.72114e+00
       L  2.19074e+00  1.19392e+00  2.55312e+00
6
# CELL(abcABC):  459.05226   459.05226   459.05226    90.00000    90.00000    90.00000  Step:          61  Bead:       0 x_centroid{angstrom}  cell{atomic_unit}
       C -1.97669e-01 -1.04672e-01  4.72537e-02
       O  8.06460e-01  2.44148e-01 -1.45085e-01
       H -7.31274e-01  1.13585e+00 -2.15691e-01
       H -8.81713e-01 -1.09729e+00  1.37086e-01
       L  2.14853e+00  1.80913e+00 -3.56826e+00
       L  2.24796e+00  1.46943e+00  2.41918e+00
6
# CELL(abcABC):  459.05226   459.05226   459.05226    90.00000    90.00000    90.00000  Step:          62  Bead:       0 x_centroid{angstrom}  cell{atomic_unit}
       C -1.95688e-01 -1.02535e-01  4.83025e-02
       O  8.08186e-01  2.45044e-01 -1.46092e-01
       H -7.46483e-01  1.08603e+00 -2.03487e-01
       H -9.17693e-01 -1.08704e+00  1.28345e-01
       L  2.44495e+00  1.38926e+00 -3.36330e+00
       L  2.28509e+00  1.67802e+00  2.23946e+00
6
# CELL(abcABC):  459.05226   459.05226   459.05226    90.00000    90.00000    90.00000  Step:          63  Bead:       0 x_centroid{angstrom}  cell{atomic_unit}
       C -1.96794e-01 -1.00051e-01  4.94441e-02
       O  8.11985e-01  2.45946e-01 -1.47597e-01
       H -7.65629e-01  1.02739e+00 -1.87165e-01
       H -9.45815e-01 -1.07222e+00  1.22278e-01
       L  2.74217e+00  9.96838e-01 -3.13961e+00
       L  2.26121e+00  1.89991e+00  2.08928e+00
6
# CELL(abcABC):  459.05226   459.05226   459.05226    90.00000    90.00000    90.00000  Step:          64  Bead:       0 x_centroid{angstrom}  cell{atomic_unit}
       C -2.00941e-01 -9.72239e-02  5.06591e-02
       O  8.17749e-01  2.46782e-01 -1.49471e-01
       H -7.88311e-01  9.61158e-01 -1.67250e-01
       H -9.65324e-01 -1.05283e+00  1.17543e-01
       L  2.98291e+00  5.89465e-01 -2.84865e+00
       L  2.24495e+00  2.09512e+00  1.94428e+00
6
# CELL(abcABC):  459.05226   459.05226   459.05226    90.00000    90.00000    90.00000  Step:          65  Bead:       0 x_centroid{angstrom}  cell{atomic_unit}
       C -2.07846e-01 -9.40176e-02  5.20874e-02
       O  8.25466e-01  2.47475e-01 -1.51676e-01
       H -8.15714e-01  8.90006e-01 -1.44526e-01
       H -9.78225e-01 -1.03076e+00  1.12691e-01
       L  3.15079e+00  1.45157e-01 -2.50737e+00
       L  2.22321e+00  2.30098e+00  1.80148e+00
6
# CELL(abcABC):  459.05226   459.05226   459.05226    90.00000    90.00000    90.00000  Step:          66  Bead:       0 x_centroid{angstrom}  cell{atomic_unit}
       C -2.17489e-01 -9.03861e-02  5.36668e-02