6
# CELL(abcABC):  459.05226   459.05226   459.05226    90.00000    90.00000    90.00000  Step:           0  Bead:       0 x_centroid{angstrom}  cell{atomic_unit}
       C -3.39887e-01 -1.13437e-01  8.06659e-02
       O  8.43483e-01  2.62672e-01 -1.81512e-01
       H -7.35799e-02  8.16467e-01 -6.61432e-01
       H -4.30016e-01 -9.65701e-01  7.62278e-01
       L  0.00000e+00  0.00000e+00  0.00000e+00
       L  0.00000e+00  0.00000e+00  0.00000e+00
6
# CELL(abcABC):  459.05226   459.05226   459.05226    90.00000    90.00000    90.00000  Step:           1  Bead:       0 x_centroid{angstrom}  cell{atomic_unit}
       C -3.42275e-01 -1.12446e-01  8.14701e-02
       O  8.45732e-01  2.63330e-01 -1.82074e-01
       H -7.27244e-02  8.05518e-01 -6.67517e-01
       H -4.38396e-01 -9.77027e-01  7.67902e-01
       L  1.65935e-01 -2.06077e-01 -2.10114e-02
       L  3.75065e-01  2.41279e-01 -3.73780e-01
6
# CELL(abcABC):  459.05226   459.05226   459.05226    90.00000    90.00000    90.00000  Step:           2  Bead:       0 x_centroid{angstrom}  cell{atomic_unit}
       C -3.44739e-01 -1.11919e-01  8.24426e-02
       O  8.47962e-01  2.64197e-01 -1.82761e-01
       H -6.93954e-02  7.94533e-01 -6.74186e-01
       H -4.48053e-01 -9.86120e-01  7.74092e-01
       L  3.01562e-01 -3.82899e-01  1.48972e-02
       L  7.53461e-01  4.69117e-01 -7.70751e-01
6
# CELL(abcABC):  459.05226   459.05226   459.05226    90.00000    90.00000    90.00000  Step:           3  Bead:       0 x_centroid{angstrom}  cell{atomic_unit}
       C -3.47287e-01 -1.11577e-01  8.34320e-02
       O  8.50257e-01  2.65160e-01 -1.83284e-01
       H -6.54020e-02  7.83374e-01 -6.81155e-01
       H -4.58410e-01 -9.94377e-01  7.77768e-01
       L  4.50406e-01 -5.25397e-01  9.96676e-02
       L  1.15343e+00  6.95708e-01 -1.21163e+00
6
# CELL(abcABC):  459.05226   459.05226   459.05226    90.00000    90.00000    90.00000  Step:           4  Bead:       0 x_centroid{angstrom}  cell{atomic_unit}
       C -3.49929e-01 -1.11454e-01  8.45395e-02
       O  8.52544e-01  2.66147e-01 -1.83874e-01
       H -6.03252e-02  7.73137e-01 -6.88413e-01
       H -4.68575e-01 -1.00131e+00  7.81426e-01
       L  5.61127e-01 -6.61587e-01  1.41528e-01
       L  1.52205e+00  9.27746e-01 -1.69128e+00
6
# CELL(abcABC):  459.05226   459.05226   459.05226    90.00000    90.00000    90.00000  Step:           5  Bead:       0 x_centroid{angstrom}  cell{atomic_unit}
       C -3.52806e-01 -1.11306e-01  8.56592e-02
       O  8.54897e-01  2.66722e-01 -1.84271e-01
       H -5.40998e-02  7.65434e-01 -6.97526e-01
       H -4.78116e-01 -1.00452e+00  7.83761e-01
       L  6.75948e-01 -7.91083e-01  1.52414e-01
       L  1.86698e+00  1.09086e+00 -2.18858e+00
6
# CELL(abcABC):  459.05226   459.05226   459.05226    90.00000    90.00000    90.00000  Step:           6  Bead:       0 x_centroid{angstrom}  cell{atomic_unit}
       C -3.55572e-01 -1.11262e-01  8.69559e-02
       O  8.56992e-01  2.67094e-01 -1.84654e-01
       H -4.59247e-02  7.59513e-01 -7.07088e-01
       H -4.86764e-01 -1.00506e+00  7.84203e-01
       L  7.22997e-01 -8.62528e-01  1.70359e-01
       L  2.16565e+00  1.21783e+00 -2.65434e+00
6
# CELL(abcABC):  459.05226   459.05226   459.05226    90.00000    90.00000    90.00000  Step:           7  Bead:       0 x_centroid{angstrom}  cell{atomic_unit}
       C -3.58281e-01 -1.11312e-01  8.82012e-02
       O  8.58823e-01  2.67274e-01 -1.84868e-01
       H -3.58316e-02  7.54514e-01 -7.17399e-01
       H -4.93827e-01 -1.00233e+00  7.83335e-01
       L  7.76144e-01 -9.15372e-01  1.38507e-01
       L  2.45270e+00  1.29453e+00 -3.10768e+00
6
# CELL(abcABC):  459.05226   459.05226   459.05226    90.00000    90.00000    90.00000  Step:           8  Bead:       0 x_centroid{angstrom}  cell{atomic_unit}
       C -3.60718e-01 -1.11583e-01  8.96214e-02
       O  8.60382e-01  2.67425e-01 -1.85081e-01
       H -2.48850e-02  7.50281e-01 -7.28278e-01
       H -5.00650e-01 -9.97281e-01  7.80893e-01
       L  7.69189e-01 -9.66463e-01  1.33647e-01
       L  2.74054e+00  1.37287e+00 -3.52209e+00
6
# CELL(abcABC):  459.05226   459.05226   459.05226    90.00000    90.00000    90.00000  Step:           9  Bead:       0 x_centroid{angstrom}  cell{atomic_unit}
       C -3.63126e-01 -1.12181e-01  9.11040e-02
       O  8.61739e-01  2.67566e-01 -1.85228e-01
       H -1.25956e-02  7.47953e-01 -7.40023e-01
       H -5.05887e-01 -9.90043e-01  7.77534e-01
       L  7.50384e-01 -1.04653e+00  5.40661e-02
       L  2.97322e+00  1.41535e+00 -3.86129e+00
6
# CELL(abcABC):  459.05226   459.05226   459.05226    90.00000    90.00000    90.00000  Step:          10  Bead:       0 x_centroid{angstrom}  cell{atomic_unit}
       C -3.65230e-01 -1.13288e-01  9.25813e-02
       O  8.62525e-01  2.67833e-01 -1.85201e-01
       H  4.07217e-03  7.47659e-01 -7.52285e-01
       H -5.10054e-01 -9.80799e-01  7.71984e-01
       L  6.96996e-01 -1.13481e+00 -4.48194e-02
       L  3.18341e+00  1.49379e+00 -4.17263e+00
6
# CELL(abcABC):  459.05226   459.05226   459.05226    90.00000    90.00000    90.00000  Step:          11  Bead:       0 x_centroid{angstrom}  cell{atomic_unit}
       C -3.67224e-01 -1.14373e-01  9.37440e-02
       O  8.62737e-01  2.67908e-01 -1.84974e-01
       H  2.72153e-02  7.49320e-01 -7.62989e-01
       H -5.12842e-01 -9.70724e-01  7.65381e-01
       L  5.99597e-01 -1.20812e+00 -8.55650e-02
       L  3.37224e+00  1.57951e+00 -4.41025e+00
6
# CELL(abcABC):  459.05226   459.05226   459.05226    90.00000    90.00000    90.00000  Step:          12  Bead:       0 x_centroid{angstrom}  cell{atomic_unit}
       C -3.69024e-01 -1.15514e-01  9.49505e-02
       O  8.62408e-01  2.67992e-01 -1.84828e-01
       H  5.49975e-02  7.50778e-01 -7.73832e-01
       H -5.13942e-01 -9.59969e-01  7.59649e-01
       L  4.57108e-01 -1.27738e+00 -9.44561e-02
       L  3.50740e+00  1.71815e+00 -4.59406e+00
6
# CELL(abcABC):  459.05226   459.05226   459.05226    90.00000    90.00000    90.00000  Step:          13  Bead:       0 x_centroid{angstrom}  cell{atomic_unit}
       C -3.70991e-01 -1.16810e-01  9.61347e-02
       O  8.61707e-01  2.68197e-01 -1.84885e-01
       H  8.78836e-02  7.53921e-01 -7.83516e-01
       H -5.12232e-01 -9.50946e-01  7.56196e-01
       L  2.95120e-01 -1.34238e+00 -6.77338e-02
       L  3.60010e+00  1.85371e+00 -4.75122e+00
6
# CELL(abcABC):  459.05226   459.05226   459.05226    90.00000    90.00000    90.00000  Step:          14  Bead:       0 x_centroid{angstrom}  cell{atomic_unit}
       C -3.72931e-01 -1.18306e-01  9.72123e-02
       O  8.60428e-01  2.68514e-01 -1.85062e-01
       H  1.27415e-01  7.58461e-01 -7.92335e-01
       H -5.08273e-01 -9.42691e-01  7.54967e-01
       L  1.21280e-01 -1.41811e+00  2.77413e-02
       L  3.64971e+00  1.91532e+00 -4.81160e+00
6
# CELL(abcABC):  459.05226   459.05226   459.05226    90.00000    90.00000    90.00000  Step:          15  Bead:       0 x_centroid{angstrom}  cell{atomic_unit}
       C -3.75305e-01 -1.19740e-01  9.84730e-02
       O  8.58626e-01  2.68860e-01 -1.85549e-01
       H  1.75940e-01  7.63365e-01 -8.01416e-01
       H -4.99841e-01 -9.35955e-01  7.56733e-01
       L -5.61699e-02 -1.50744e+00  8.77426e-02
       L  3.70216e+00  1.92907e+00 -4.85774e+00
6
# CELL(abcABC):  459.05226   459.05226   459.05226    90.00000    90.00000    90.00000  Step:          16  Bead:       0 x_centroid{angstrom}  cell{atomic_unit}
       C -3.77942e-01 -1.21009e-01  9.97791e-02
       O  8.56256e-01  2.69220e-01 -1.86310e-01
       H  2.34476e-01  7.70039e-01 -8.09679e-01
       H -4.89276e-01 -9.33201e-01  7.61487e-01
       L -1.73958e-01 -1.52510e+00  1.81466e-01
       L  3.70408e+00  1.91010e+00 -4.89110e+00
6
# CELL(abcABC):  459.05226   459.05226   459.05226    90.00000    90.00000    90.00000  Step:          17  Bead:       0 x_centroid{angstrom}  cell{atomic_unit}
       C -3.80449e-01 -1.22290e-01  1.01451e-01
       O  8.53188e-01  2.69516e-01 -1.87516e-01
       H  3.01038e-01  7.79026e-01 -8.17922e-01
       H -4.77195e-01 -9.31598e-01  7.68916e-01
       L -2.91236e-01 -1.50340e+00  2.74852e-01
       L  3.67654e+00  1.85385e+00 -4.92210e+00
6
# CELL(abcABC):  459.05226   459.05226   459.05226    90.00000    90.00000    90.00000  Step:          18  Bead:       0 x_centroid{angstrom}  cell{atomic_unit}
       C -3.82827e-01 -1.23308e-01  1.02893e-01
       O  8.49333e-01  2.69595e-01 -1.88734e-01
       H  3.75164e-01  7.90787e-01 -8.26850e-01
       H -4.61676e-01 -9.32431e-01  7.79921e-01
       L -4.24274e-01 -1.51173e+00  4.15061e-01
       L  3.62580e+00  1.77138e+00 -4.93295e+00
6
# CELL(abcABC):  459.05226   459.05226   459.05226    90.00000    90.00000    90.00000  Step:          19  Bead:       0 x_centroid{angstrom}  cell{atomic_unit}
       C -3.85607e-01 -1.24290e-01  1.04080e-01
       O  8.45173e-01  2.69666e-01 -1.89706e-01
       H  4.55869e-01  8.05621e-01 -8.39018e-01
       H -4.43082e-01 -9.36647e-01  7.93267e-01
       L -6.00088e-01 -1.51970e+00  5.82620e-01
       L  3.53933e+00  1.67180e+00 -4.89465e+00
6
# CELL(abcABC):  459.05226   459.05226   459.05226    90.00000    90.00000    90.00000  Step:          20  Bead:       0 x_centroid{angstrom}  cell{atomic_unit}
       C -3.88307e-01 -1.25024e-01  1.05327e-01
       O  8.40590e-01  2.69309e-01 -1.90558e-01
       H  5.40629e-01  8.25010e-01 -8.55386e-01
       H -4.22773e-01 -9.41616e-01  8.08184e-01
       L -7.62204e-01 -1.43714e+00  7.32073e-01
       L  3.42329e+00  1.58256e+00 -4.84586e+00
6
# CELL(abcABC):  459.05226   459.05226   459.05226    90.00000    90.00000    90.00000  Step:          21  Bead:       0 x_centroid{angstrom}  cell{atomic_unit}
       C -3.91097e-01 -1.25834e-01  1.06338e-01
       O  8.35788e-01  2.68764e-01 -1.91098e-01
       H  6.27585e-01  8.48966e-01 -8.75872e-01
       H -4.00070e-01 -9.47293e-01  8.25100e-01
       L -9.08489e-01 -1.26835e+00  8.54327e-01
       L  3.21723e+00  1.46307e+00 -4.77526e+00
6
# CELL(abcABC):  459.05226   459.05226   459.05226    90.00000    90.00000    90.00000  Step:          22  Bead:       0 x_centroid{angstrom}  cell{atomic_unit}
       C -3.93448e-01 -1.26393e-01  1.07137e-01
       O  8.30536e-01  2.67874e-01 -1.91273e-01
       H  7.14360e-01  8.76244e-01 -8.99499e-01
       H -3.75212e-01 -9.53785e-01  8.41861e-01
       L -1.06369e+00 -1.11895e+00  9.42804e-01
       L  2.92228e+00  1.32543e+00 -4.65549e+00
6
# CELL(abcABC):  459.05226   459.05226   459.05226    90.00000    90.00000    90.00000  Step:          23  Bead:       0 x_centroid{angstrom}  cell{atomic_unit}
       C -3.95758e-01 -1.26759e-01  1.07682e-01
       O  8.24999e-01  2.66628e-01 -1.91199e-01
       H  8.02278e-01  9.04021e-01 -9.23432e-01
       H -3.47514e-01 -9.57422e-01  8.58008e-01
       L -1.18905e+00 -9.75389e-01  1.03003e+00
       L  2.65872e+00  1.18897e+00 -4.50294e+00
6
# CELL(abcABC):  459.05226   459.05226   459.05226    90.00000    90.00000    90.00000  Step:          24  Bead:       0 x_centroid{angstrom}  cell{atomic_unit}
       C -3.98389e-01 -1.27134e-01  1.08198e-01
       O  8.19651e-01  2.65464e-01 -1.91130e-01
       H  8.89435e-01  9.29329e-01 -9.44791e-01
       H -3.18233e-01 -9.59824e-01  8.71982e-01
       L -1.27493e+00 -7.82952e-01  1.08874e+00
       L  2.38603e+00  1.04683e+00 -4.31988e+00
6
# CELL(abcABC):  459.05226   459.05226   459.05226    90.00000    90.00000    90.00000  Step:          25  Bead:       0 x_centroid{angstrom}  cell{atomic_unit}
       C -4.01184e-01 -1.27511e-01  1.08320e-01
       O  8.14538e-01  2.64510e-01 -1.90958e-01
       H  9.74093e-01  9.50199e-01 -9.61054e-01
       H -2.88225e-01 -9.61097e-01  8.83961e-01
       L -1.32727e+00 -6.13152e-01  1.09931e+00
       L  2.09045e+00  9.52960e-01 -4.14834e+00
6
# CELL(abcABC):  459.05226   459.05226   459.05226    90.00000    90.00000    90.00000  Step:          26  Bead:       0 x_centroid{angstrom}  cell{atomic_unit}
       C -4.03928e-01 -1.27719e-01  1.08258e-01
       O  8.09637e-01  2.63620e-01 -1.91044e-01
       H  1.05387e+00  9.65252e-01 -9.69627e-01
       H -2.57344e-01 -9.59555e-01  8.94548e-01
       L -1.35792e+00 -4.77460e-01  1.06944e+00
       L  1.80596e+00  8.39484e-01 -3.95937e+00
6
# CELL(abcABC):  459.05226   459.05226   459.05226    90.00000    90.00000    90.00000  Step:          27  Bead:       0 x_centroid{angstrom}  cell{atomic_unit}
       C -4.06696e-01 -1.27747e-01  1.07959e-01
       O  8.04996e-01  2.62683e-01 -1.91254e-01
       H  1.12826e+00  9.74528e-01 -9.69980e-01
       H -2.24861e-01 -9.53620e-01  9.01752e-01
       L -1.38407e+00 -3.53183e-01  1.05455e+00
       L  1.44485e+00  7.04252e-01 -3.83527e+00
6
# CELL(abcABC):  459.05226   459.05226   459.05226    90.00000    90.00000    90.00000  Step:          28  Bead:       0 x_centroid{angstrom}  cell{atomic_unit}
       C -4.09519e-01 -1.27717e-01  1.07598e-01
       O  8.00870e-01  2.61985e-01 -1.91812e-01
       H  1.19483e+00  9.76311e-01 -9.62353e-01
       H -1.92113e-01 -9.44668e-01  9.07185e-01
       L -1.36559e+00 -1.75951e-01  1.07704e+00
       L  1.07934e+00  4.99685e-01 -3.68758e+00
6
# CELL(abcABC):  459.05226   459.05226   459.05226    90.00000    90.00000    90.00000  Step:          29  Bead:       0 x_centroid{angstrom}  cell{atomic_unit}
       C -4.12264e-01 -1.27999e-01  1.07252e-01
       O  7.97246e-01  2.61768e-01 -1.92703e-01
       H  1.25299e+00  9.71545e-01 -9.45786e-01
       H -1.59813e-01 -9.33087e-01  9.08812e-01
       L -1.39630e+00 -4.90048e-03  1.04654e+00
       L  6.94242e-01  3.24573e-01 -3.52929e+00
6
# CELL(abcABC):  459.05226   459.05226   459.05226    90.00000    90.00000    90.00000  Step:          30  Bead:       0 x_centroid{angstrom}  cell{atomic_unit}
       C -4.14746e-01 -1.28368e-01  1.07000e-01
       O  7.94107e-01  2.61944e-01 -1.94069e-01
       H  1.30191e+00  9.59042e-01 -9.19602e-01
       H -1.29112e-01 -9.18998e-01  9.07230e-01
       L -1.44275e+00  1.75283e-01  9.95087e-01
       L  3.30072e-01  1.67580e-01 -3.34063e+00
6
# CELL(abcABC):  459.05226   459.05226   459.05226    90.00000    90.00000    90.00000  Step:          31  Bead:       0 x_centroid{angstrom}  cell{atomic_unit}
       C -4.16924e-01 -1.28488e-01  1.06695e-01
       O  7.91539e-01  2.62361e-01 -1.95663e-01
       H  1.34052e+00  9.38085e-01 -8.87523e-01
       H -1.00774e-01 -9.03212e-01  9.04020e-01
       L -1.49161e+00  2.96083e-01  9.42327e-01
       L -2.59414e-02  1.05352e-02 -3.13342e+00
6
# CELL(abcABC):  459.05226   459.05226   459.05226    90.00000    90.00000    90.00000  Step:          32  Bead:       0 x_centroid{angstrom}  cell{atomic_unit}
       C -4.18807e-01 -1.28414e-01  1.06269e-01
       O  7.89631e-01  2.62967e-01 -1.97519e-01
       H  1.36773e+00  9.10570e-01 -8.48630e-01
       H -7.50727e-02 -8.86202e-01  8.99551e-01
       L -1.49494e+00  4.24978e-01  9.01509e-01
       L -3.79752e-01 -1.06259e-01 -2.88598e+00
6
# CELL(abcABC):  459.05226   459.05226   459.05226    90.00000    90.00000    90.00000  Step:          33  Bead:       0 x_centroid{angstrom}  cell{atomic_unit}
       C -4.20179e-01 -1.28281e-01  1.05810e-01
       O  7.88261e-01  2.63791e-01 -1.99557e-01
       H  1.38278e+00  8.77784e-01 -8.05062e-01
       H -5.18715e-02 -8.68077e-01  8.93653e-01
       L -1.45927e+00  5.99857e-01  8.82710e-01
       L -7.08259e-01 -2.85297e-01 -2.60618e+00
6
# CELL(abcABC):  459.05226   459.05226   459.05226    90.00000    90.00000    90.00000  Step:          34  Bead:       0 x_centroid{angstrom}  cell{atomic_unit}
       C -4.21256e-01 -1.28067e-01  1.05282e-01
       O  7.87634e-01  2.64737e-01 -2.01665e-01
       H  1.38613e+00  8.40439e-01 -7.57283e-01
       H -3.23069e-02 -8.48297e-01  8.85486e-01
       L -1.41216e+00  7.97827e-01  8.29951e-01
       L -9.84102e-01 -5.01075e-01 -2.28744e+00
6
# CELL(abcABC):  459.05226   459.05226   459.05226    90.00000    90.00000    90.00000  Step:          35  Bead:       0 x_centroid{angstrom}  cell{atomic_unit}
       C -4.22280e-01 -1.27479e-01  1.04783e-01
       O  7.87665e-01  2.65488e-01 -2.03850e-01
       H  1.38175e+00  8.01388e-01 -7.08792e-01
       H -1.61169e-02 -8.28183e-01  8.77436e-01
       L -1.37158e+00  1.03990e+00  7.88756e-01
       L -1.21186e+00 -7.00912e-01 -1.90746e+00
6
# CELL(abcABC):  459.05226   459.05226   459.05226    90.00000    90.00000    90.00000  Step:          36  Bead:       0 x_centroid{angstrom}  cell{atomic_unit}
       C -4.22992e-01 -1.27010e-01  1.04659e-01
       O  7.88012e-01  2.66177e-01 -2.06082e-01
       H  1.37255e+00  7.65195e-01 -6.63873e-01
       H -3.87577e-03 -8.08510e-01  8.69270e-01
       L -1.27766e+00  1.28271e+00  7.56632e-01
       L -1.42054e+00 -9.42732e-01 -1.57800e+00
6
# CELL(abcABC):  459.05226   459.05226   459.05226    90.00000    90.00000    90.00000  Step:          37  Bead:       0 x_centroid{angstrom}  cell{atomic_unit}
       C -4.23304e-01 -1.26371e-01  1.04296e-01
       O  7.88316e-01  2.66366e-01 -2.07742e-01
       H  1.36391e+00  7.36885e-01 -6.26677e-01
       H  3.73902e-03 -7.90852e-01  8.62583e-01
       L -1.20587e+00  1.52854e+00  6.85420e-01
       L -1.64693e+00 -1.13962e+00 -1.23633e+00
6
# CELL(abcABC):  459.05226   459.05226   459.05226    90.00000    90.00000    90.00000  Step:          38  Bead:       0 x_centroid{angstrom}  cell{atomic_unit}
       C -4.23474e-01 -1.25674e-01  1.04022e-01
       O  7.88318e-01  2.65820e-01 -2.08854e-01
       H  1.36296e+00  7.21736e-01 -6.00808e-01
       H  6.75365e-03 -7.75369e-01  8.57500e-01
       L -1.12296e+00  1.79635e+00  5.51002e-01
       L -1.85188e+00 -1.37606e+00 -8.30404e-01
6
# CELL(abcABC):  459.05226   459.05226   459.05226    90.00000    90.00000    90.00000  Step:          39  Bead:       0 x_centroid{angstrom}  cell{atomic_unit}
       C -4.23390e-01 -1.24869e-01  1.03570e-01
       O  7.87723e-01  2.64337e-01 -2.09072e-01
       H  1.37397e+00  7.22533e-01 -5.90163e-01
       H  4.25087e-03 -7.62203e-01  8.55552e-01
       L -1.05386e+00  2.05896e+00  3.94982e-01
       L -2.04224e+00 -1.64244e+00 -4.03580e-01
6
# CELL(abcABC):  459.05226   459.05226   459.05226    90.00000    90.00000    90.00000  Step:          40  Bead:       0 x_centroid{angstrom}  cell{atomic_unit}
       C -4.23287e-01 -1.23679e-01  1.03266e-01
       O  7.86583e-01  2.61826e-01 -2.08713e-01
       H  1.39806e+00  7.38842e-01 -5.94349e-01
       H -2.92089e-03 -7.52858e-01  8.57492e-01
       L -9.75142e-01  2.33170e+00  2.86915e-01
       L -2.20267e+00 -1.88979e+00  1.74291e-02
6
# CELL(abcABC):  459.05226   459.05226   459.05226    90.00000    90.00000    90.00000  Step:          41  Bead:       0 x_centroid{angstrom}  cell{atomic_unit}
       C -4.22973e-01 -1.22455e-01  1.02869e-01
       O  7.85041e-01  2.58773e-01 -2.07908e-01
       H  1.42892e+00  7.66632e-01 -6.08010e-01
       H -1.30049e-02 -7.46806e-01  8.62965e-01
       L -8.55522e-01  2.57012e+00  1.50004e-01
       L -2.41664e+00 -2.04727e+00  3.97499e-01
6
# CELL(abcABC):  459.05226   459.05226   459.05226    90.00000    90.00000    90.00000  Step:          42  Bead:       0 x_centroid{angstrom}  cell{atomic_unit}
       C -4.22486e-01 -1.20809e-01  1.02465e-01
       O  7.83501e-01  2.55352e-01 -2.07012e-01
       H  1.46072e+00  7.98870e-01 -6.26068e-01
       H -2.61081e-02 -7.44433e-01  8.71461e-01
       L -7.27007e-01  2.80015e+00  2.31993e-02
       L -2.65597e+00 -2.15317e+00  8.10384e-01
6
# CELL(abcABC):  459.05226   459.05226   459.05226    90.00000    90.00000    90.00000  Step:          43  Bead:       0 x_centroid{angstrom}  cell{atomic_unit}
       C -4.21896e-01 -1.19003e-01  1.01660e-01
       O  7.82529e-01  2.52000e-01 -2.06037e-01
       H  1.48601e+00  8.31219e-01 -6.44205e-01
       H -4.29641e-02 -7.45182e-01  8.83582e-01
       L -5.46789e-01  2.96636e+00 -1.33377e-01
       L -2.87683e+00 -2.15537e+00  1.19353e+00
6
# CELL(abcABC):  459.05226   459.05226   459.05226    90.00000    90.00000    90.00000  Step:          44  Bead:       0 x_centroid{angstrom}  cell{atomic_unit}
       C -4.21075e-01 -1.16786e-01  1.00563e-01
       O  7.82301e-01  2.48720e-01 -2.04971e-01
       H  1.50066e+00  8.60703e-01 -6.62187e-01
       H -6.37676e-02 -7.49090e-01  8.97633e-01
       L -3.59911e-01  3.14549e+00 -3.41298e-01
       L -3.07248e+00 -2.19080e+00  1.59121e+00
6
# CELL(abcABC):  459.05226   459.05226   459.05226    90.00000    90.00000    90.00000  Step:          45  Bead:       0 x_centroid{angstrom}  cell{atomic_unit}
       C -4.20306e-01 -1.14550e-01  9.96051e-02
       O  7.83125e-01  2.45900e-01 -2.04308e-01
       H  1.50278e+00  8.86314e-01 -6.77883e-01
       H -8.81946e-02 -7.56657e-01  9.14125e-01
       L -1.84019e-01  3.29746e+00 -6.03107e-01
       L -3.14958e+00 -2.21879e+00  1.99828e+00
6
# CELL(abcABC):  459.05226   459.05226   459.05226    90.00000    90.00000    90.00000  Step:          46  Bead:       0 x_centroid{angstrom}  cell{atomic_unit}
       C -4.19348e-01 -1.11941e-01  9.87094e-02
       O  7.84686e-01  2.43273e-01 -2.03783e-01
       H  1.49389e+00  9.06548e-01 -6.92770e-01
       H -1.15506e-01 -7.66335e-01  9.31346e-01
       L -1.26306e-01  3.38997e+00 -8.98758e-01
       L -3.19514e+00 -2.19955e+00  2.32137e+00
6
# CELL(abcABC):  459.05226   459.05226   459.05226    90.00000    90.00000    90.00000  Step:          47  Bead:       0 x_centroid{angstrom}  cell{atomic_unit}
       C -4.18502e-01 -1.09260e-01  9.80264e-02
       O  7.87346e-01  2.41058e-01 -2.03731e-01
       H  1.47194e+00  9.20083e-01 -7.03469e-01
       H -1.45848e-01 -7.76704e-01  9.49344e-01
       L -7.93587e-02  3.43614e+00 -1.20101e+00
       L -3.26669e+00 -2.15765e+00  2.64812e+00
6
# CELL(abcABC):  459.05226   459.05226   459.05226    90.00000    90.00000    90.00000  Step:          48  Bead:       0 x_centroid{angstrom}  cell{atomic_unit}
       C -4.17808e-01 -1.06253e-01  9.74134e-02
       O  7.90884e-01  2.38905e-01 -2.03851e-01
       H  1.43872e+00  9.28559e-01 -7.11265e-01
       H -1.77036e-01 -7.86903e-01  9.66301e-01
       L -6.34994e-02  3.45886e+00 -1.46725e+00
       L -3.32761e+00 -2.08501e+00  2.99578e+00
6
# CELL(abcABC):  459.05226   459.05226   459.05226    90.00000    90.00000    90.00000  Step:          49  Bead:       0 x_centroid{angstrom}  cell{atomic_unit}
       C -4.16788e-01 -1.03244e-01  9.67515e-02
       O  7.95020e-01  2.37064e-01 -2.03907e-01
       H  1.39397e+00  9.31092e-01 -7.16318e-01
       H -2.10089e-01 -7.96105e-01  9.80037e-01
       L -7.00130e-02  3.43236e+00 -1.69526e+00
       L -3.33509e+00 -1.95250e+00  3.40356e+00
6
# CELL(abcABC):  459.05226   459.05226   459.05226    90.00000    90.00000    90.00000  Step:          50  Bead:       0 x_centroid{angstrom}  cell{atomic_unit}
       C -4.15988e-01 -1.00177e-01  9.60061e-02
       O  7.99917e-01  2.35520e-01 -2.03805e-01
       H  1.34022e+00  9.28453e-01 -7.18919e-01
       H -2.43590e-01 -8.05570e-01  9.89782e-01
       L -7.51508e-02  3.40915e+00 -1.90597e+00
       L -3.32545e+00 -1.83794e+00  3.81444e+00
6
# CELL(abcABC):  459.05226   459.05226   459.05226    90.00000    90.00000    90.00000  Step:          51  Bead:       0 x_centroid{angstrom}  cell{atomic_unit}
       C -4.14979e-01 -9.68884e-02  9.53588e-02
       O  8.05265e-01  2.33929e-01 -2.03717e-01
       H  1.27756e+00  9.22636e-01 -7.19444e-01
       H -2.77900e-01 -8.13689e-01  9.96486e-01
       L -8.79945e-03  3.35763e+00 -2.04617e+00
       L -3.30565e+00 -1.76784e+00  4.21494e+00
6
# CELL(abcABC):  459.05226   459.05226   459.05226    90.00000    90.00000    90.00000  Step:          52  Bead:       0 x_centroid{angstrom}  cell{atomic_unit}
       C -4.14056e-01 -9.36543e-02  9.45495e-02
       O  8.11121e-01  2.32433e-01 -2.03287e-01
       H  1.20752e+00  9.13828e-01 -7.19686e-01
       H -3.11846e-01 -8.19673e-01  9.99400e-01
       L  2.92769e-02  3.28818e+00 -2.14397e+00
       L -3.28454e+00 -1.70272e+00  4.57501e+00
6
# CELL(abcABC):  459.05226   459.05226   459.05226    90.00000    90.00000    90.00000  Step:          53  Bead:       0 x_centroid{angstrom}  cell{atomic_unit}
       C -4.13274e-01 -9.04914e-02  9.36331e-02
       O  8.17240e-01  2.30702e-01 -2.02457e-01
       H  1.13411e+00  9.06841e-01 -7.21621e-01
       H -3.44941e-01 -8.22870e-01  9.98927e-01
       L  7.76035e-02  3.12069e+00 -2.18865e+00
       L -3.21882e+00 -1.59214e+00  4.91484e+00
6
# CELL(abcABC):  459.05226   459.05226   459.05226    90.00000    90.00000    90.00000  Step:          54  Bead:       0 x_centroid{angstrom}  cell{atomic_unit}
       C -4.12559e-01 -8.74502e-02  9.27009e-02
       O  8.23590e-01  2.28561e-01 -2.01063e-01
       H  1.05807e+00  9.06495e-01 -7.28291e-01
       H -3.78232e-01 -8.24720e-01  9.94423e-01
       L  7.83660e-02  2.91243e+00 -2.23245e+00
       L -3.19286e+00 -1.48401e+00  5.23675e+00
6
# CELL(abcABC):  459.05226   459.05226   459.05226    90.00000    90.00000    90.00000  Step:          55  Bead:       0 x_centroid{angstrom}  cell{atomic_unit}
       C -4.11961e-01 -8.41581e-02  9.18387e-02
       O  8.29947e-01  2.25557e-01 -1.99074e-01
       H  9.81542e-01  9.14239e-01 -7.41958e-01
       H -4.09793e-01 -8.23983e-01  9.86621e-01
       L  1.01827e-01  2.73788e+00 -2.22762e+00
       L -3.12264e+00 -1.36168e+00  5.54146e+00
6
# CELL(abcABC):  459.05226   459.05226   459.05226    90.00000    90.00000    90.00000  Step:          56  Bead:       0 x_centroid{angstrom}  cell{atomic_unit}
       C -4.11518e-01 -8.06892e-02  9.06312e-02
       O  8.36324e-01  2.21847e-01 -1.96325e-01
       H  9.05052e-01  9.29465e-01 -7.61478e-01
       H -4.39852e-01 -8.21606e-01  9.76746e-01
       L  8.55065e-02  2.49818e+00 -2.20012e+00
       L -3.02205e+00 -1.21054e+00  5.79322e+00
6
# CELL(abcABC):  459.05226   459.05226   459.05226    90.00000    90.00000    90.00000  Step:          57  Bead:       0 x_centroid{angstrom}  cell{atomic_unit}
       C -4.11104e-01 -7.70212e-02  8.98882e-02
       O  8.42615e-01  2.17626e-01 -1.93391e-01
       H  8.27708e-01  9.48780e-01 -7.85680e-01
       H -4.67343e-01 -8.17611e-01  9.63118e-01
       L  9.19361e-02  2.29346e+00 -2.13470e+00
       L -2.92820e+00 -1.03214e+00  5.92167e+00
6
# CELL(abcABC):  459.05226   459.05226   459.05226    90.00000    90.00000    90.00000  Step:          58  Bead:       0 x_centroid{angstrom}  cell{atomic_unit}
       C -4.10528e-01 -7.32934e-02  8.91809e-02
       O  8.48540e-01  2.13256e-01 -1.90144e-01
       H  7.50422e-01  9.68217e-01 -8.11664e-01
       H -4.91053e-01 -8.12067e-01  9.45948e-01
       L  1.07353e-01  2.07657e+00 -2.12428e+00
       L -2.82322e+00 -8.68802e-01  5.99804e+00
6
# CELL(abcABC):  459.05226   459.05226   459.05226    90.00000    90.00000    90.00000  Step:          59  Bead:       0 x_centroid{angstrom}  cell{atomic_unit}
       C -4.09877e-01 -6.99218e-02  8.84120e-02
       O  8.54173e-01  2.09300e-01 -1.86879e-01
       H  6.75630e-01  9.83404e-01 -8.34898e-01
       H -5.13493e-01 -8.04618e-01  9.26432e-01
       L  1.53291e-01  1.81426e+00 -2.07722e+00
       L -2.72744e+00 -6.43748e-01  6.10702e+00
6
# CELL(abcABC):  459.05226   459.05226   459.05226    90.00000    90.00000    90.00000  Step:          60  Bead:       0 x_centroid{angstrom}  cell{atomic_unit}
       C -4.09268e-01 -6.62972e-02  8.77012e-02
       O  8.59392e-01  2.05461e-01 -1.83850e-01
       H  6.04923e-01  9.92735e-01 -8.52232e-01
       H -5.32937e-01 -7.96145e-01  9.04138e-01
       L  1.39185e-01  1.48254e+00 -2.09636e+00
       L -2.64305e+00 -4.31288e-01  6.17038e+00
6
# CELL(abcABC):  459.05226   459.05226   459.05226    90.00000    90.00000    90.00000  Step:          61  Bead:       0 x_centroid{angstrom}  cell{atomic_unit}
       C -4.08689e-01 -6.28145e-02  8.67607e-02
       O  8.63986e-01  2.02177e-01 -1.81015e-01
       H  5.41107e-01  9.94629e-01 -8.63440e-01
       H -5.48976e-01 -7.87294e-01  8.81557e-01
       L  1.26477e-01  1.05762e+00 -2.12718e+00
       L -2.54733e+00 -2.07015e-01  6.17934e+00
6
# CELL(abcABC):  459.05226   459.05226   459.05226    90.00000    90.00000    90.00000  Step:          62  Bead:       0 x_centroid{angstrom}  cell{atomic_unit}
       C -4.07752e-01 -5.91303e-02  8.57105e-02
       O  8.67604e-01  1.99343e-01 -1.78659e-01
       H  4.85364e-01  9.89115e-01 -8.66171e-01
       H -5.61918e-01 -7.80569e-01  8.59426e-01
       L  1.57938e-01  5.51753e-01 -2.14984e+00
       L -2.43568e+00  5.11100e-02  6.15783e+00
6
# CELL(abcABC):  459.05226   459.05226   459.05226    90.00000    90.00000    90.00000  Step:          63  Bead:       0 x_centroid{angstrom}  cell{atomic_unit}
       C -4.06846e-01 -5.54517e-02  8.46819e-02
       O  8.70654e-01  1.97239e-01 -1.77006e-01
       H  4.37482e-01  9.74889e-01 -8.61149e-01
       H -5.73332e-01 -7.76627e-01  8.40500e-01
       L  2.20254e-01 -3.68390e-03 -2.17804e+00
       L -2.32180e+00  3.41032e-01  6.04935e+00
6
# CELL(abcABC):  459.05226   459.05226   459.05226    90.00000    90.00000    90.00000  Step:          64  Bead:       0 x_centroid{angstrom}  cell{atomic_unit}
       C -4.06241e-01 -5.14521e-02  8.34599e-02
       O  8.73131e-01  1.95459e-01 -1.75721e-01
       H  4.00070e-01  9.53440e-01 -8.50008e-01
       H -5.82538e-01 -7.74429e-01  8.23557e-01
       L  2.60907e-01 -5.57998e-01 -2.15779e+00
       L -2.20900e+00  6.09230e-01  5.96946e+00
6
# CELL(abcABC):  459.05226   459.05226   459.05226    90.00000    90.00000    90.00000  Step:          65  Bead:       0 x_centroid{angstrom}  cell{atomic_unit}
       C -4.05682e-01 -4.72667e-02  8.20291e-02
       O  8.74879e-01  1.94240e-01 -1.74900e-01
       H  3.72701e-01  9.24964e-01 -8.33384e-01
       H -5.89706e-01 -7.76311e-01  8.11016e-01
       L  3.45105e-01 -1.13433e+00 -2.11349e+00
       L -2.06025e+00  8.67609e-01  5.81870e+00
6
# CELL(abcABC):  459.05226   459.05226   459.05226    90.00000    90.00000    90.00000  Step:          66  Bead:       0 x_centroid{angstrom}  cell{atomic_unit}
       C -4.05176e-01 -4.30427e-02  8.02096e-02