6
# CELL(abcABC):  459.05226   459.05226   459.05226    90.00000    90.00000    90.00000  Step:           0  Bead:       0 x_centroid{angstrom}  cell{atomic_unit}
       C -3.39887e-01 -1.13437e-01  8.06659e-02
       O  8.43483e-01  2.62672e-01 -1.81512e-01
       H -7.35799e-02  8.16467e-01 -6.61432e-01
       H -4.30016e-01 -9.65701e-01  7.62278e-01
       L  0.00000e+00  0.00000e+00  0.00000e+00
       L  0.00000e+00  0.00000e+00  0.00000e+00
6
# CELL(abcABC):  459.05226   459.05226   459.05226    90.00000    90.00000    90.00000  Step:           1  Bead:       0 x_centroid{angstrom}  cell{atomic_unit}
       C -3.39329e-01 -1.12748e-01  8.41949e-02
       O  8.43079e-01  2.61387e-01 -1.83968e-01
       H -7.60296e-02  8.33600e-01 -6.63911e-01
       H -4.27700e-01 -9.70535e-01  7.61552e-01
       L -5.86192e-02  7.98860e-03 -1.39767e-02
       L -1.14581e-01 -2.47953e-01  2.60424e-01
6
# CELL(abcABC):  459.05226   459.05226   459.05226    90.00000    90.00000    90.00000  Step:           2  Bead:       0 x_centroid{angstrom}  cell{atomic_unit}
       C -3.38911e-01 -1.11914e-01  8.78443e-02
       O  8.42812e-01  2.60154e-01 -1.86560e-01
       H -7.84103e-02  8.49591e-01 -6.65089e-01
       H -4.25942e-01 -9.76733e-01  7.60232e-01
       L -1.43011e-01 -4.74769e-02 -3.64314e-02
       L -2.40965e-01 -4.61417e-01  5.57793e-01
6
# CELL(abcABC):  459.05226   459.05226   459.05226    90.00000    90.00000    90.00000  Step:           3  Bead:       0 x_centroid{angstrom}  cell{atomic_unit}
       C -3.38746e-01 -1.10738e-01  9.13504e-02
       O  8.42675e-01  2.58719e-01 -1.89055e-01
       H -7.92034e-02  8.64375e-01 -6.65718e-01
       H -4.24820e-01 -9.82638e-01  7.58550e-01
       L -2.24145e-01 -8.69310e-02 -2.67272e-02
       L -4.06345e-01 -6.39022e-01  8.11769e-01
6
# CELL(abcABC):  459.05226   459.05226   459.05226    90.00000    90.00000    90.00000  Step:           4  Bead:       0 x_centroid{angstrom}  cell{atomic_unit}
       C -3.38768e-01 -1.09574e-01  9.45231e-02
       O  8.42618e-01  2.57466e-01 -1.91304e-01
       H -7.90059e-02  8.76072e-01 -6.65151e-01
       H -4.23733e-01 -9.88169e-01  7.55793e-01
       L -2.87407e-01 -1.98450e-01 -9.22490e-02
       L -5.62227e-01 -7.94305e-01  1.01788e+00
6
# CELL(abcABC):  459.05226   459.05226   459.05226    90.00000    90.00000    90.00000  Step:           5  Bead:       0 x_centroid{angstrom}  cell{atomic_unit}
       C -3.38936e-01 -1.08442e-01  9.75926e-02
       O  8.42566e-01  2.56338e-01 -1.93541e-01
       H -7.79257e-02  8.84925e-01 -6.62599e-01
       H -4.21884e-01 -9.92471e-01  7.52107e-01
       L -3.19268e-01 -3.06563e-01 -1.35511e-01
       L -7.24370e-01 -9.22337e-01  1.17829e+00
6
# CELL(abcABC):  459.05226   459.05226   459.05226    90.00000    90.00000    90.00000  Step:           6  Bead:       0 x_centroid{angstrom}  cell{atomic_unit}
       C -3.39129e-01 -1.07423e-01  1.00654e-01
       O  8.42432e-01  2.55433e-01 -1.95941e-01
       H -7.60156e-02  8.91121e-01 -6.57157e-01
       H -4.19183e-01 -9.96335e-01  7.48216e-01
       L -4.13453e-01 -3.86215e-01 -1.62392e-01
       L -9.36762e-01 -1.04641e+00  1.34792e+00
6
# CELL(abcABC):  459.05226   459.05226   459.05226    90.00000    90.00000    90.00000  Step:           7  Bead:       0 x_centroid{angstrom}  cell{atomic_unit}
       C -3.39679e-01 -1.06359e-01  1.03714e-01
       O  8.42391e-01  2.54567e-01 -1.98406e-01
       H -7.21606e-02  8.95166e-01 -6.49972e-01
       H -4.15678e-01 -9.99211e-01  7.43605e-01
       L -5.00168e-01 -4.98284e-01 -1.63198e-01
       L -1.15207e+00 -1.12153e+00  1.51929e+00
6
# CELL(abcABC):  459.05226   459.05226   459.05226    90.00000    90.00000    90.00000  Step:           8  Bead:       0 x_centroid{angstrom}  cell{atomic_unit}
       C -3.40132e-01 -1.05279e-01  1.06657e-01
       O  8.42123e-01  2.53773e-01 -2.00799e-01
       H -6.56575e-02  8.96791e-01 -6.41657e-01
       H -4.12396e-01 -1.00099e+00  7.38093e-01
       L -6.04304e-01 -5.91384e-01 -1.53717e-01
       L -1.28939e+00 -1.23294e+00  1.68380e+00
6
# CELL(abcABC):  459.05226   459.05226   459.05226    90.00000    90.00000    90.00000  Step:           9  Bead:       0 x_centroid{angstrom}  cell{atomic_unit}
       C -3.40418e-01 -1.03868e-01  1.09390e-01
       O  8.41665e-01  2.52934e-01 -2.03116e-01
       H -5.70537e-02  8.95345e-01 -6.31279e-01
       H -4.10191e-01 -1.00294e+00  7.31865e-01
       L -7.05639e-01 -6.86981e-01 -1.48723e-01
       L -1.41022e+00 -1.33216e+00  1.81440e+00
6
# CELL(abcABC):  459.05226   459.05226   459.05226    90.00000    90.00000    90.00000  Step:          10  Bead:       0 x_centroid{angstrom}  cell{atomic_unit}
       C -3.40755e-01 -1.02053e-01  1.11924e-01
       O  8.41164e-01  2.51983e-01 -2.05523e-01
       H -4.66091e-02  8.91098e-01 -6.18306e-01
       H -4.08523e-01 -1.00514e+00  7.26831e-01
       L -8.61718e-01 -7.74495e-01 -1.31954e-01
       L -1.53753e+00 -1.39680e+00  1.93071e+00
6
# CELL(abcABC):  459.05226   459.05226   459.05226    90.00000    90.00000    90.00000  Step:          11  Bead:       0 x_centroid{angstrom}  cell{atomic_unit}
       C -3.41282e-01 -1.00595e-01  1.14192e-01
       O  8.40551e-01  2.51332e-01 -2.07923e-01
       H -3.35078e-02  8.86870e-01 -6.04033e-01
       H -4.05464e-01 -1.00791e+00  7.23577e-01
       L -1.01563e+00 -8.48809e-01 -7.95431e-02
       L -1.66589e+00 -1.42082e+00  1.95505e+00
6
# CELL(abcABC):  459.05226   459.05226   459.05226    90.00000    90.00000    90.00000  Step:          12  Bead:       0 x_centroid{angstrom}  cell{atomic_unit}
       C -3.41790e-01 -9.90502e-02  1.16312e-01
       O  8.39747e-01  2.50881e-01 -2.10181e-01
       H -1.74352e-02  8.79881e-01 -5.89132e-01
       H -4.02581e-01 -1.01209e+00  7.19209e-01
       L -1.16421e+00 -9.01377e-01 -5.09528e-02
       L -1.77509e+00 -1.49524e+00  2.01521e+00
6
# CELL(abcABC):  459.05226   459.05226   459.05226    90.00000    90.00000    90.00000  Step:          13  Bead:       0 x_centroid{angstrom}  cell{atomic_unit}
       C -3.42306e-01 -9.73719e-02  1.18572e-01
       O  8.38710e-01  2.50267e-01 -2.12539e-01
       H  2.93415e-03  8.74470e-01 -5.73802e-01
       H -4.00247e-01 -1.01689e+00  7.14344e-01
       L -1.25760e+00 -8.82405e-01 -1.76599e-02
       L -1.86164e+00 -1.57580e+00  2.04700e+00
6
# CELL(abcABC):  459.05226   459.05226   459.05226    90.00000    90.00000    90.00000  Step:          14  Bead:       0 x_centroid{angstrom}  cell{atomic_unit}
       C -3.43217e-01 -9.59514e-02  1.20704e-01
       O  8.37582e-01  2.49813e-01 -2.14692e-01
       H  2.88400e-02  8.69219e-01 -5.59941e-01
       H -3.97260e-01 -1.02132e+00  7.09236e-01
       L -1.41348e+00 -8.46076e-01  2.65352e-02
       L -1.93480e+00 -1.68413e+00  2.02643e+00
6
# CELL(abcABC):  459.05226   459.05226   459.05226    90.00000    90.00000    90.00000  Step:          15  Bead:       0 x_centroid{angstrom}  cell{atomic_unit}
       C -3.44088e-01 -9.45270e-02  1.23162e-01
       O  8.36110e-01  2.49164e-01 -2.16883e-01
       H  5.93047e-02  8.66968e-01 -5.48754e-01
       H -3.93861e-01 -1.02568e+00  7.03552e-01
       L -1.56957e+00 -8.43293e-01  9.73020e-02
       L -2.01033e+00 -1.81623e+00  1.93501e+00
6
# CELL(abcABC):  459.05226   459.05226   459.05226    90.00000    90.00000    90.00000  Step:          16  Bead:       0 x_centroid{angstrom}  cell{atomic_unit}
       C -3.45141e-01 -9.36817e-02  1.26108e-01
       O  8.34399e-01  2.48614e-01 -2.19132e-01
       H  9.46585e-02  8.68776e-01 -5.42437e-01
       H -3.89424e-01 -1.02878e+00  6.97844e-01
       L -1.67811e+00 -8.34147e-01  1.76817e-01
       L -2.04644e+00 -1.91725e+00  1.82148e+00
6
# CELL(abcABC):  459.05226   459.05226   459.05226    90.00000    90.00000    90.00000  Step:          17  Bead:       0 x_centroid{angstrom}  cell{atomic_unit}
       C -3.46614e-01 -9.34037e-02  1.29307e-01
       O  8.32539e-01  2.48103e-01 -2.21326e-01
       H  1.36940e-01  8.75974e-01 -5.39149e-01
       H -3.84581e-01 -1.03120e+00  6.91318e-01
       L -1.75538e+00 -8.19072e-01  2.14932e-01
       L -2.04446e+00 -1.91057e+00  1.70505e+00
6
# CELL(abcABC):  459.05226   459.05226   459.05226    90.00000    90.00000    90.00000  Step:          18  Bead:       0 x_centroid{angstrom}  cell{atomic_unit}
       C -3.48528e-01 -9.36594e-02  1.32930e-01
       O  8.30538e-01  2.47612e-01 -2.23615e-01
       H  1.86045e-01  8.89491e-01 -5.39948e-01
       H -3.79110e-01 -1.03388e+00  6.85279e-01
       L -1.85213e+00 -8.10266e-01  2.54616e-01
       L -1.95986e+00 -1.90628e+00  1.65617e+00
6
# CELL(abcABC):  459.05226   459.05226   459.05226    90.00000    90.00000    90.00000  Step:          19  Bead:       0 x_centroid{angstrom}  cell{atomic_unit}
       C -3.51157e-01 -9.43648e-02  1.37097e-01
       O  8.28570e-01  2.47201e-01 -2.26025e-01
       H  2.41478e-01  9.09108e-01 -5.45219e-01
       H -3.71988e-01 -1.03860e+00  6.79138e-01
       L -1.89180e+00 -7.79762e-01  3.25127e-01
       L -1.89863e+00 -1.88099e+00  1.61863e+00
6
# CELL(abcABC):  459.05226   459.05226   459.05226    90.00000    90.00000    90.00000  Step:          20  Bead:       0 x_centroid{angstrom}  cell{atomic_unit}
       C -3.54542e-01 -9.56241e-02  1.41573e-01
       O  8.26796e-01  2.46662e-01 -2.28347e-01
       H  3.02482e-01  9.38245e-01 -5.56481e-01
       H -3.64514e-01 -1.04422e+00  6.73920e-01
       L -1.90174e+00 -7.15709e-01  3.65523e-01
       L -1.86036e+00 -1.85496e+00  1.58611e+00
6
# CELL(abcABC):  459.05226   459.05226   459.05226    90.00000    90.00000    90.00000  Step:          21  Bead:       0 x_centroid{angstrom}  cell{atomic_unit}
       C -3.58566e-01 -9.72260e-02  1.46206e-01
       O  8.25106e-01  2.45935e-01 -2.30457e-01
       H  3.68237e-01  9.75412e-01 -5.73702e-01
       H -3.55532e-01 -1.05080e+00  6.69437e-01
       L -1.88012e+00 -6.53903e-01  3.98513e-01
       L -1.79865e+00 -1.84043e+00  1.53402e+00
6
# CELL(abcABC):  459.05226   459.05226   459.05226    90.00000    90.00000    90.00000  Step:          22  Bead:       0 x_centroid{angstrom}  cell{atomic_unit}
       C -3.62799e-01 -9.91180e-02  1.51178e-01
       O  8.23100e-01  2.45037e-01 -2.32632e-01
       H  4.39032e-01  1.01927e+00 -5.95494e-01
       H -3.44160e-01 -1.05793e+00  6.66512e-01
       L -1.80591e+00 -5.52348e-01  3.82626e-01
       L -1.68516e+00 -1.78778e+00  1.51907e+00
6
# CELL(abcABC):  459.05226   459.05226   459.05226    90.00000    90.00000    90.00000  Step:          23  Bead:       0 x_centroid{angstrom}  cell{atomic_unit}
       C -3.67562e-01 -1.01312e-01  1.55900e-01
       O  8.21048e-01  2.44258e-01 -2.34552e-01
       H  5.13997e-01  1.06583e+00 -6.19939e-01
       H -3.29930e-01 -1.06611e+00  6.65190e-01
       L -1.71326e+00 -4.34610e-01  4.12832e-01
       L -1.52271e+00 -1.71126e+00  1.46292e+00
6
# CELL(abcABC):  459.05226   459.05226   459.05226    90.00000    90.00000    90.00000  Step:          24  Bead:       0 x_centroid{angstrom}  cell{atomic_unit}
       C -3.73031e-01 -1.03465e-01  1.60816e-01
       O  8.19034e-01  2.43519e-01 -2.36620e-01
       H  5.95118e-01  1.11131e+00 -6.44574e-01
       H -3.14100e-01 -1.07427e+00  6.64115e-01
       L -1.58584e+00 -3.37247e-01  4.52528e-01
       L -1.30653e+00 -1.66412e+00  1.34945e+00
6
# CELL(abcABC):  459.05226   459.05226   459.05226    90.00000    90.00000    90.00000  Step:          25  Bead:       0 x_centroid{angstrom}  cell{atomic_unit}
       C -3.78854e-01 -1.05335e-01  1.65825e-01
       O  8.16984e-01  2.42783e-01 -2.38803e-01
       H  6.79578e-01  1.15399e+00 -6.68317e-01
       H -2.96862e-01 -1.08305e+00  6.62888e-01
       L -1.44592e+00 -2.45120e-01  4.22941e-01
       L -1.03019e+00 -1.61780e+00  1.21932e+00
6
# CELL(abcABC):  459.05226   459.05226   459.05226    90.00000    90.00000    90.00000  Step:          26  Bead:       0 x_centroid{angstrom}  cell{atomic_unit}
       C -3.84756e-01 -1.06897e-01  1.70489e-01
       O  8.14789e-01  2.42164e-01 -2.40910e-01
       H  7.65766e-01  1.19066e+00 -6.88532e-01
       H -2.78118e-01 -1.09138e+00  6.61039e-01
       L -1.27719e+00 -1.06996e-01  4.17241e-01
       L -7.49225e-01 -1.57944e+00  1.13743e+00
6
# CELL(abcABC):  459.05226   459.05226   459.05226    90.00000    90.00000    90.00000  Step:          27  Bead:       0 x_centroid{angstrom}  cell{atomic_unit}
       C -3.90736e-01 -1.08199e-01  1.75003e-01
       O  8.12582e-01  2.41863e-01 -2.43267e-01
       H  8.52307e-01  1.21826e+00 -7.03902e-01
       H -2.58598e-01 -1.09881e+00  6.60107e-01
       L -1.12406e+00  1.04719e-02  3.99029e-01
       L -4.73357e-01 -1.48566e+00  9.91833e-01
6
# CELL(abcABC):  459.05226   459.05226   459.05226    90.00000    90.00000    90.00000  Step:          28  Bead:       0 x_centroid{angstrom}  cell{atomic_unit}
       C -3.96315e-01 -1.09282e-01  1.79312e-01
       O  8.10214e-01  2.42033e-01 -2.45639e-01
       H  9.37059e-01  1.23537e+00 -7.14288e-01
       H -2.39551e-01 -1.10579e+00  6.56871e-01
       L -9.23611e-01  7.86729e-02  3.76190e-01
       L -1.92473e-01 -1.42016e+00  9.10286e-01
6
# CELL(abcABC):  459.05226   459.05226   459.05226    90.00000    90.00000    90.00000  Step:          29  Bead:       0 x_centroid{angstrom}  cell{atomic_unit}
       C -4.01733e-01 -1.09932e-01  1.83683e-01
       O  8.07904e-01  2.42583e-01 -2.48215e-01
       H  1.01818e+00  1.24131e+00 -7.19704e-01
       H -2.19687e-01 -1.11277e+00  6.51135e-01
       L -7.64771e-01  1.59149e-01  3.30407e-01
       L  9.13274e-02 -1.40471e+00  8.49345e-01
6
# CELL(abcABC):  459.05226   459.05226   459.05226    90.00000    90.00000    90.00000  Step:          30  Bead:       0 x_centroid{angstrom}  cell{atomic_unit}
       C -4.06965e-01 -1.10507e-01  1.87705e-01
       O  8.05659e-01  2.43658e-01 -2.50829e-01
       H  1.09441e+00  1.23620e+00 -7.19533e-01
       H -1.98204e-01 -1.11791e+00  6.44623e-01
       L -5.75460e-01  2.65962e-01  2.86608e-01
       L  3.94413e-01 -1.42560e+00  7.58282e-01
6
# CELL(abcABC):  459.05226   459.05226   459.05226    90.00000    90.00000    90.00000  Step:          31  Bead:       0 x_centroid{angstrom}  cell{atomic_unit}
       C -4.11794e-01 -1.10784e-01  1.91092e-01
       O  8.03514e-01  2.45214e-01 -2.53259e-01
       H  1.16267e+00  1.21882e+00 -7.13821e-01
       H -1.75157e-01 -1.12196e+00  6.37182e-01
       L -3.62576e-01  3.60704e-01  2.63294e-01
       L  7.18206e-01 -1.47151e+00  6.57174e-01
6
# CELL(abcABC):  459.05226   459.05226   459.05226    90.00000    90.00000    90.00000  Step:          32  Bead:       0 x_centroid{angstrom}  cell{atomic_unit}
       C -4.16064e-01 -1.10929e-01  1.94361e-01
       O  8.01676e-01  2.47157e-01 -2.55922e-01
       H  1.22070e+00  1.19195e+00 -7.02071e-01
       H -1.53442e-01 -1.12419e+00  6.28859e-01
       L -1.13835e-01  4.33010e-01  2.07975e-01
       L  1.02601e+00 -1.54435e+00  5.06722e-01
6
# CELL(abcABC):  459.05226   459.05226   459.05226    90.00000    90.00000    90.00000  Step:          33  Bead:       0 x_centroid{angstrom}  cell{atomic_unit}
       C -4.19511e-01 -1.11002e-01  1.97518e-01
       O  7.99946e-01  2.49579e-01 -2.58640e-01
       H  1.26815e+00  1.15506e+00 -6.85232e-01
       H -1.32655e-01 -1.12489e+00  6.17682e-01
       L  1.07514e-01  4.88683e-01  1.45351e-01
       L  1.36754e+00 -1.60262e+00  3.20692e-01
6
# CELL(abcABC):  459.05226   459.05226   459.05226    90.00000    90.00000    90.00000  Step:          34  Bead:       0 x_centroid{angstrom}  cell{atomic_unit}
       C -4.22344e-01 -1.10754e-01  2.00306e-01
       O  7.98466e-01  2.52032e-01 -2.61420e-01
       H  1.30590e+00  1.11185e+00 -6.62197e-01
       H -1.13421e-01 -1.12355e+00  6.05679e-01
       L  3.02409e-01  5.16970e-01  1.06548e-01
       L  1.65215e+00 -1.66737e+00  1.23460e-01
6
# CELL(abcABC):  459.05226   459.05226   459.05226    90.00000    90.00000    90.00000  Step:          35  Bead:       0 x_centroid{angstrom}  cell{atomic_unit}
       C -4.24565e-01 -1.10201e-01  2.03020e-01
       O  7.97298e-01  2.54720e-01 -2.64321e-01
       H  1.33492e+00  1.06137e+00 -6.35998e-01
       H -9.76866e-02 -1.12232e+00  5.93258e-01
       L  5.08130e-01  5.27474e-01  1.15740e-01
       L  1.90478e+00 -1.68392e+00 -3.23363e-02
6
# CELL(abcABC):  459.05226   459.05226   459.05226    90.00000    90.00000    90.00000  Step:          36  Bead:       0 x_centroid{angstrom}  cell{atomic_unit}
       C -4.26308e-01 -1.09535e-01  2.05664e-01
       O  7.96567e-01  2.57487e-01 -2.67245e-01
       H  1.35417e+00  1.00665e+00 -6.06922e-01
       H -8.48335e-02 -1.11942e+00  5.79168e-01
       L  7.51861e-01  5.12340e-01  1.20620e-01
       L  2.15400e+00 -1.74133e+00 -1.64412e-01
6
# CELL(abcABC):  459.05226   459.05226   459.05226    90.00000    90.00000    90.00000  Step:          37  Bead:       0 x_centroid{angstrom}  cell{atomic_unit}
       C -4.27153e-01 -1.08464e-01  2.08048e-01
       O  7.95912e-01  2.59958e-01 -2.69977e-01
       H  1.36412e+00  9.51301e-01 -5.76522e-01
       H -7.45848e-02 -1.11602e+00  5.63805e-01
       L  1.00921e+00  4.86992e-01  1.40821e-01
       L  2.39602e+00 -1.79460e+00 -3.37085e-01
6
# CELL(abcABC):  459.05226   459.05226   459.05226    90.00000    90.00000    90.00000  Step:          38  Bead:       0 x_centroid{angstrom}  cell{atomic_unit}
       C -4.27826e-01 -1.07093e-01  2.10241e-01
       O  7.95411e-01  2.61899e-01 -2.72579e-01
       H  1.37063e+00  8.98938e-01 -5.46472e-01
       H -6.53849e-02 -1.11079e+00  5.48976e-01
       L  1.27135e+00  4.88622e-01  1.80588e-01
       L  2.61383e+00 -1.80661e+00 -4.63644e-01
6
# CELL(abcABC):  459.05226   459.05226   459.05226    90.00000    90.00000    90.00000  Step:          39  Bead:       0 x_centroid{angstrom}  cell{atomic_unit}
       C -4.27931e-01 -1.05011e-01  2.12432e-01
       O  7.94620e-01  2.62611e-01 -2.75072e-01
       H  1.37703e+00  8.55798e-01 -5.17840e-01
       H -5.82458e-02 -1.10377e+00  5.33854e-01
       L  1.54163e+00  4.74636e-01  1.74491e-01
       L  2.83094e+00 -1.78248e+00 -5.62595e-01
6
# CELL(abcABC):  459.05226   459.05226   459.05226    90.00000    90.00000    90.00000  Step:          40  Bead:       0 x_centroid{angstrom}  cell{atomic_unit}
       C -4.27645e-01 -1.02674e-01  2.14361e-01
       O  7.93322e-01  2.62210e-01 -2.76984e-01
       H  1.39034e+00  8.26615e-01 -4.94166e-01
       H -5.46083e-02 -1.09606e+00  5.17597e-01
       L  1.78634e+00  4.68718e-01  1.67247e-01
       L  3.04415e+00 -1.78513e+00 -6.24985e-01
6
# CELL(abcABC):  459.05226   459.05226   459.05226    90.00000    90.00000    90.00000  Step:          41  Bead:       0 x_centroid{angstrom}  cell{atomic_unit}
       C -4.27130e-01 -9.98662e-02  2.15746e-01
       O  7.91422e-01  2.60531e-01 -2.78150e-01
       H  1.41406e+00  8.12997e-01 -4.76539e-01
       H -5.44983e-02 -1.08927e+00  5.02035e-01
       L  1.98685e+00  4.85804e-01  1.38347e-01
       L  3.21295e+00 -1.74724e+00 -6.97746e-01
6
# CELL(abcABC):  459.05226   459.05226   459.05226    90.00000    90.00000    90.00000  Step:          42  Bead:       0 x_centroid{angstrom}  cell{atomic_unit}
       C -4.26218e-01 -9.69615e-02  2.17066e-01
       O  7.88794e-01  2.57804e-01 -2.78985e-01
       H  1.44849e+00  8.15341e-01 -4.63632e-01
       H -5.82733e-02 -1.08295e+00  4.86715e-01
       L  2.13292e+00  4.70448e-01  1.18839e-01
       L  3.39554e+00 -1.71813e+00 -8.01341e-01
6
# CELL(abcABC):  459.05226   459.05226   459.05226    90.00000    90.00000    90.00000  Step:          43  Bead:       0 x_centroid{angstrom}  cell{atomic_unit}
       C -4.24467e-01 -9.37385e-02  2.18334e-01
       O  7.85251e-01  2.54310e-01 -2.79658e-01
       H  1.48978e+00  8.28446e-01 -4.53888e-01
       H -6.43519e-02 -1.07902e+00  4.72585e-01
       L  2.29141e+00  4.31956e-01  9.45502e-02
       L  3.56488e+00 -1.66631e+00 -8.68660e-01
6
# CELL(abcABC):  459.05226   459.05226   459.05226    90.00000    90.00000    90.00000  Step:          44  Bead:       0 x_centroid{angstrom}  cell{atomic_unit}
       C -4.22555e-01 -9.01762e-02  2.19399e-01
       O  7.81694e-01  2.50403e-01 -2.80445e-01
       H  1.53103e+00  8.45331e-01 -4.43424e-01
       H -7.20744e-02 -1.07635e+00  4.61952e-01
       L  2.40356e+00  4.28468e-01  1.07339e-01
       L  3.70268e+00 -1.62079e+00 -9.27740e-01
6
# CELL(abcABC):  459.05226   459.05226   459.05226    90.00000    90.00000    90.00000  Step:          45  Bead:       0 x_centroid{angstrom}  cell{atomic_unit}
       C -4.20125e-01 -8.64195e-02  2.20379e-01
       O  7.78313e-01  2.46626e-01 -2.81387e-01
       H  1.56723e+00  8.62203e-01 -4.31659e-01
       H -8.36792e-02 -1.07808e+00  4.53498e-01
       L  2.51204e+00  4.39838e-01  7.29856e-02
       L  3.82086e+00 -1.54202e+00 -9.72729e-01
6
# CELL(abcABC):  459.05226   459.05226   459.05226    90.00000    90.00000    90.00000  Step:          46  Bead:       0 x_centroid{angstrom}  cell{atomic_unit}
       C -4.17252e-01 -8.20781e-02  2.21340e-01
       O  7.75437e-01  2.42615e-01 -2.82512e-01
       H  1.59352e+00  8.78169e-01 -4.17809e-01
       H -9.86535e-02 -1.08217e+00  4.46126e-01
       L  2.58956e+00  4.33842e-01 -1.80114e-02
       L  3.91534e+00 -1.42628e+00 -9.92712e-01
6
# CELL(abcABC):  459.05226   459.05226   459.05226    90.00000    90.00000    90.00000  Step:          47  Bead:       0 x_centroid{angstrom}  cell{atomic_unit}
       C -4.13956e-01 -7.74493e-02  2.22204e-01
       O  7.73110e-01  2.38751e-01 -2.83635e-01
       H  1.60808e+00  8.92075e-01 -4.03305e-01
       H -1.15604e-01 -1.09002e+00  4.39262e-01
       L  2.62385e+00  4.49139e-01 -1.49197e-01
       L  3.99410e+00 -1.22722e+00 -1.05213e+00
6
# CELL(abcABC):  459.05226   459.05226   459.05226    90.00000    90.00000    90.00000  Step:          48  Bead:       0 x_centroid{angstrom}  cell{atomic_unit}
       C -4.10392e-01 -7.28352e-02  2.22855e-01
       O  7.71469e-01  2.35338e-01 -2.84695e-01
       H  1.61114e+00  9.01674e-01 -3.87285e-01
       H -1.35107e-01 -1.10052e+00  4.32387e-01
       L  2.62094e+00  4.54845e-01 -2.74252e-01
       L  4.01300e+00 -1.04743e+00 -1.10398e+00
6
# CELL(abcABC):  459.05226   459.05226   459.05226    90.00000    90.00000    90.00000  Step:          49  Bead:       0 x_centroid{angstrom}  cell{atomic_unit}
       C -4.06400e-01 -6.80736e-02  2.23701e-01
       O  7.70368e-01  2.32230e-01 -2.85954e-01
       H  1.60305e+00  9.06574e-01 -3.70530e-01
       H -1.57115e-01 -1.11299e+00  4.25609e-01
       L  2.61139e+00  5.04267e-01 -3.82471e-01
       L  4.05033e+00 -8.01204e-01 -1.09968e+00
6
# CELL(abcABC):  459.05226   459.05226   459.05226    90.00000    90.00000    90.00000  Step:          50  Bead:       0 x_centroid{angstrom}  cell{atomic_unit}
       C -4.02553e-01 -6.30782e-02  2.25001e-01
       O  7.70180e-01  2.29363e-01 -2.87644e-01
       H  1.58446e+00  9.06532e-01 -3.52023e-01
       H -1.81364e-01 -1.12712e+00  4.18461e-01
       L  2.64572e+00  5.16069e-01 -4.48223e-01
       L  3.98963e+00 -5.24680e-01 -1.09520e+00
6
# CELL(abcABC):  459.05226   459.05226   459.05226    90.00000    90.00000    90.00000  Step:          51  Bead:       0 x_centroid{angstrom}  cell{atomic_unit}
       C -3.98478e-01 -5.76933e-02  2.26289e-01
       O  7.70718e-01  2.26448e-01 -2.89443e-01
       H  1.55411e+00  9.02756e-01 -3.32087e-01
       H -2.08065e-01 -1.14142e+00  4.11827e-01
       L  2.66487e+00  5.22990e-01 -5.32134e-01
       L  3.87614e+00 -2.16530e-01 -1.17428e+00
6
# CELL(abcABC):  459.05226   459.05226   459.05226    90.00000    90.00000    90.00000  Step:          52  Bead:       0 x_centroid{angstrom}  cell{atomic_unit}
       C -3.94143e-01 -5.25808e-02  2.27726e-01
       O  7.71771e-01  2.23865e-01 -2.91331e-01
       H  1.51471e+00  8.95544e-01 -3.11157e-01
       H -2.36964e-01 -1.15427e+00  4.03818e-01
       L  2.64954e+00  5.33309e-01 -6.46214e-01
       L  3.76120e+00  3.63647e-02 -1.20692e+00
6
# CELL(abcABC):  459.05226   459.05226   459.05226    90.00000    90.00000    90.00000  Step:          53  Bead:       0 x_centroid{angstrom}  cell{atomic_unit}
       C -3.89765e-01 -4.70933e-02  2.29283e-01
       O  7.73538e-01  2.20951e-01 -2.93179e-01
       H  1.46676e+00  8.87526e-01 -2.90564e-01
       H -2.69064e-01 -1.16550e+00  3.94123e-01
       L  2.54666e+00  4.73404e-01 -7.99788e-01
       L  3.55548e+00  3.02101e-01 -1.25005e+00
6
# CELL(abcABC):  459.05226   459.05226   459.05226    90.00000    90.00000    90.00000  Step:          54  Bead:       0 x_centroid{angstrom}  cell{atomic_unit}
       C -3.85581e-01 -4.18309e-02  2.31273e-01
       O  7.75852e-01  2.17965e-01 -2.95242e-01
       H  1.41455e+00  8.82731e-01 -2.68989e-01
       H -3.03248e-01 -1.17607e+00  3.81650e-01
       L  2.43876e+00  3.87309e-01 -9.44002e-01
       L  3.32530e+00  4.92719e-01 -1.24204e+00
6
# CELL(abcABC):  459.05226   459.05226   459.05226    90.00000    90.00000    90.00000  Step:          55  Bead:       0 x_centroid{angstrom}  cell{atomic_unit}
       C -3.81446e-01 -3.66108e-02  2.33501e-01
       O  7.78219e-01  2.14432e-01 -2.97468e-01
       H  1.36221e+00  8.83957e-01 -2.46736e-01
       H -3.37550e-01 -1.18348e+00  3.68245e-01
       L  2.26992e+00  3.16895e-01 -1.04806e+00
       L  3.09639e+00  6.74957e-01 -1.24641e+00
6
# CELL(abcABC):  459.05226   459.05226   459.05226    90.00000    90.00000    90.00000  Step:          56  Bead:       0 x_centroid{angstrom}  cell{atomic_unit}
       C -3.77354e-01 -3.14202e-02  2.35782e-01
       O  7.80317e-01  2.10065e-01 -2.99562e-01
       H  1.31491e+00  8.95214e-01 -2.23853e-01
       H -3.72023e-01 -1.18734e+00  3.51472e-01
       L  2.07615e+00  2.81925e-01 -1.16290e+00
       L  2.77856e+00  8.38822e-01 -1.23309e+00
6
# CELL(abcABC):  459.05226   459.05226   459.05226    90.00000    90.00000    90.00000  Step:          57  Bead:       0 x_centroid{angstrom}  cell{atomic_unit}
       C -3.72982e-01 -2.63645e-02  2.38380e-01
       O  7.81878e-01  2.04657e-01 -3.01782e-01
       H  1.27307e+00  9.20443e-01 -2.00207e-01
       H -4.06786e-01 -1.18709e+00  3.32141e-01
       L  1.89420e+00  3.18876e-01 -1.26367e+00
       L  2.43189e+00  1.03333e+00 -1.21091e+00
6
# CELL(abcABC):  459.05226   459.05226   459.05226    90.00000    90.00000    90.00000  Step:          58  Bead:       0 x_centroid{angstrom}  cell{atomic_unit}
       C -3.68389e-01 -2.14041e-02  2.40993e-01
       O  7.82998e-01  1.98278e-01 -3.04040e-01
       H  1.23505e+00  9.58319e-01 -1.75702e-01
       H -4.40939e-01 -1.18292e+00  3.12427e-01
       L  1.69646e+00  3.51049e-01 -1.41115e+00
       L  2.04348e+00  1.16950e+00 -1.20225e+00
6
# CELL(abcABC):  459.05226   459.05226   459.05226    90.00000    90.00000    90.00000  Step:          59  Bead:       0 x_centroid{angstrom}  cell{atomic_unit}
       C -3.64073e-01 -1.63020e-02  2.43811e-01
       O  7.84266e-01  1.90945e-01 -3.06398e-01
       H  1.19918e+00  1.00472e+00 -1.50566e-01
       H -4.76295e-01 -1.17378e+00  2.91232e-01
       L  1.51238e+00  3.62947e-01 -1.50123e+00
       L  1.59356e+00  1.27172e+00 -1.27172e+00
6
# CELL(abcABC):  459.05226   459.05226   459.05226    90.00000    90.00000    90.00000  Step:          60  Bead:       0 x_centroid{angstrom}  cell{atomic_unit}
       C -3.59835e-01 -1.11954e-02  2.46884e-01
       O  7.85510e-01  1.83029e-01 -3.09004e-01
       H  1.16329e+00  1.05567e+00 -1.24777e-01
       H -5.10251e-01 -1.15997e+00  2.70292e-01
       L  1.27032e+00  3.62705e-01 -1.65393e+00
       L  1.13223e+00  1.37191e+00 -1.31698e+00
6
# CELL(abcABC):  459.05226   459.05226   459.05226    90.00000    90.00000    90.00000  Step:          61  Bead:       0 x_centroid{angstrom}  cell{atomic_unit}
       C -3.55268e-01 -6.65973e-03  2.50529e-01
       O  7.86701e-01  1.75340e-01 -3.11827e-01
       H  1.12465e+00  1.10612e+00 -1.01324e-01
       H -5.44528e-01 -1.14250e+00  2.48293e-01
       L  9.95807e-01  3.84692e-01 -1.73933e+00
       L  6.42976e-01  1.46987e+00 -1.37242e+00
6
# CELL(abcABC):  459.05226   459.05226   459.05226    90.00000    90.00000    90.00000  Step:          62  Bead:       0 x_centroid{angstrom}  cell{atomic_unit}
       C -3.50893e-01 -2.13868e-03  2.54238e-01
       O  7.88094e-01  1.67743e-01 -3.14473e-01
       H  1.08302e+00  1.15103e+00 -7.94827e-02
       H -5.76702e-01 -1.12070e+00  2.24367e-01
       L  6.85365e-01  3.68661e-01 -1.86069e+00
       L  1.30075e-01  1.52296e+00 -1.45748e+00
6
# CELL(abcABC):  459.05226   459.05226   459.05226    90.00000    90.00000    90.00000  Step:          63  Bead:       0 x_centroid{angstrom}  cell{atomic_unit}
       C -3.47054e-01  1.87701e-03  2.57991e-01
       O  7.89805e-01  1.60912e-01 -3.16845e-01
       H  1.03887e+00  1.18829e+00 -6.17376e-02
       H -6.05013e-01 -1.09739e+00  1.99606e-01
       L  3.54710e-01  3.72354e-01 -1.90380e+00
       L -3.54091e-01  1.53261e+00 -1.52978e+00
6
# CELL(abcABC):  459.05226   459.05226   459.05226    90.00000    90.00000    90.00000  Step:          64  Bead:       0 x_centroid{angstrom}  cell{atomic_unit}
       C -3.43404e-01  5.80487e-03  2.61794e-01
       O  7.91644e-01  1.54633e-01 -3.18961e-01
       H  9.93683e-01  1.21546e+00 -4.85389e-02
       H -6.32072e-01 -1.07170e+00  1.74706e-01
       L  2.16805e-02  4.23732e-01 -1.88028e+00
       L -8.14210e-01  1.51827e+00 -1.58043e+00
6
# CELL(abcABC):  459.05226   459.05226   459.05226    90.00000    90.00000    90.00000  Step:          65  Bead:       0 x_centroid{angstrom}  cell{atomic_unit}
       C -3.40267e-01  9.67653e-03  2.65608e-01
       O  7.93758e-01  1.49131e-01 -3.20692e-01
       H  9.48558e-01  1.23027e+00 -4.02750e-02
       H -6.57471e-01 -1.04533e+00  1.48495e-01
       L -3.34038e-01  4.75292e-01 -1.88712e+00
       L -1.22826e+00  1.47327e+00 -1.62931e+00
6
# CELL(abcABC):  459.05226   459.05226   459.05226    90.00000    90.00000    90.00000  Step:          66  Bead:       0 x_centroid{angstrom}  cell{atomic_unit}
       C -3.37626e-01  1.33279e-02  2.69355e-01