6
# CELL(abcABC):  459.05226   459.05226   459.05226    90.00000    90.00000    90.00000  Step:           0  Bead:       0 x_centroid{angstrom}  cell{atomic_unit}
       C -3.39887e-01 -1.13437e-01  8.06659e-02
       O  8.43483e-01  2.62672e-01 -1.81512e-01
       H -7.35799e-02  8.16467e-01 -6.61432e-01
       H -4.30016e-01 -9.65701e-01  7.62278e-01
       L  0.00000e+00  0.00000e+00  0.00000e+00
       L  0.00000e+00  0.00000e+00  0.00000e+00
6
# CELL(abcABC):  459.05226   459.05226   459.05226    90.00000    90.00000    90.00000  Step:           1  Bead:       0 x_centroid{angstrom}  cell{atomic_unit}
       C -3.43284e-01 -1.14332e-01  7.99090e-02
       O  8.45719e-01  2.63955e-01 -1.81219e-01
       H -7.43667e-02  8.13484e-01 -6.59991e-01
       H -4.24306e-01 -9.72411e-01  7.65436e-01
       L  3.90619e-01 -2.62296e-01 -7.22125e-01
       L -2.55117e-01  2.14601e-01  2.97668e-01
6
# CELL(abcABC):  459.05226   459.05226   459.05226    90.00000    90.00000    90.00000  Step:           2  Bead:       0 x_centroid{angstrom}  cell{atomic_unit}
       C -3.46692e-01 -1.15274e-01  7.91040e-02
       O  8.47957e-01  2.65153e-01 -1.80788e-01
       H -7.49999e-02  8.11851e-01 -6.59237e-01
       H -4.18672e-01 -9.78553e-01  7.67607e-01
       L  7.99325e-01 -5.34528e-01 -1.39684e+00
       L -5.39490e-01  4.88457e-01  6.43149e-01
6
# CELL(abcABC):  459.05226   459.05226   459.05226    90.00000    90.00000    90.00000  Step:           3  Bead:       0 x_centroid{angstrom}  cell{atomic_unit}
       C -3.49781e-01 -1.16285e-01  7.78756e-02
       O  8.50033e-01  2.66318e-01 -1.80035e-01
       H -7.49170e-02  8.11354e-01 -6.57907e-01
       H -4.14917e-01 -9.84503e-01  7.69112e-01
       L  1.15624e+00 -8.13833e-01 -2.01918e+00
       L -8.43659e-01  7.58085e-01  9.89421e-01
6
# CELL(abcABC):  459.05226   459.05226   459.05226    90.00000    90.00000    90.00000  Step:           4  Bead:       0 x_centroid{angstrom}  cell{atomic_unit}
       C -3.52782e-01 -1.17225e-01  7.67255e-02
       O  8.52088e-01  2.67347e-01 -1.79214e-01
       H -7.53496e-02  8.11185e-01 -6.57471e-01
       H -4.11361e-01 -9.89437e-01  7.69476e-01
       L  1.49691e+00 -1.15467e+00 -2.59548e+00
       L -1.15599e+00  1.04851e+00  1.32860e+00
6
# CELL(abcABC):  459.05226   459.05226   459.05226    90.00000    90.00000    90.00000  Step:           5  Bead:       0 x_centroid{angstrom}  cell{atomic_unit}
       C -3.55449e-01 -1.18632e-01  7.54869e-02
       O  8.53836e-01  2.68653e-01 -1.78251e-01
       H -7.41595e-02  8.11417e-01 -6.57384e-01
       H -4.08496e-01 -9.93687e-01  7.69000e-01
       L  1.77288e+00 -1.40921e+00 -3.13435e+00
       L -1.46839e+00  1.38927e+00  1.62744e+00
6
# CELL(abcABC):  459.05226   459.05226   459.05226    90.00000    90.00000    90.00000  Step:           6  Bead:       0 x_centroid{angstrom}  cell{atomic_unit}
       C -3.57887e-01 -1.20211e-01  7.43889e-02
       O  8.55363e-01  2.69934e-01 -1.77289e-01
       H -7.16516e-02  8.12635e-01 -6.57333e-01
       H -4.06195e-01 -9.96486e-01  7.66911e-01
       L  2.02151e+00 -1.60183e+00 -3.67021e+00
       L -1.71329e+00  1.70666e+00  1.87644e+00
6
# CELL(abcABC):  459.05226   459.05226   459.05226    90.00000    90.00000    90.00000  Step:           7  Bead:       0 x_centroid{angstrom}  cell{atomic_unit}
       C -3.60060e-01 -1.21968e-01  7.33382e-02
       O  8.56649e-01  2.71263e-01 -1.76304e-01
       H -6.84442e-02  8.13884e-01 -6.56283e-01
       H -4.03924e-01 -9.97939e-01  7.62883e-01
       L  2.21736e+00 -1.79333e+00 -4.09377e+00
       L -1.92435e+00  1.96831e+00  2.03881e+00
6
# CELL(abcABC):  459.05226   459.05226   459.05226    90.00000    90.00000    90.00000  Step:           8  Bead:       0 x_centroid{angstrom}  cell{atomic_unit}
       C -3.61683e-01 -1.23686e-01  7.25353e-02
       O  8.57546e-01  2.72483e-01 -1.75423e-01
       H -6.46946e-02  8.15106e-01 -6.56251e-01
       H -4.02602e-01 -9.98065e-01  7.58579e-01
       L  2.45267e+00 -1.98509e+00 -4.49096e+00
       L -2.09398e+00  2.18609e+00  2.19674e+00
6
# CELL(abcABC):  459.05226   459.05226   459.05226    90.00000    90.00000    90.00000  Step:           9  Bead:       0 x_centroid{angstrom}  cell{atomic_unit}
       C -3.63089e-01 -1.25431e-01  7.15441e-02
       O  8.58189e-01  2.73674e-01 -1.74372e-01
       H -5.91485e-02  8.15146e-01 -6.56358e-01
       H -4.01665e-01 -9.96246e-01  7.53942e-01
       L  2.67308e+00 -2.17077e+00 -4.91514e+00
       L -2.19924e+00  2.41773e+00  2.36138e+00
6
# CELL(abcABC):  459.05226   459.05226   459.05226    90.00000    90.00000    90.00000  Step:          10  Bead:       0 x_centroid{angstrom}  cell{atomic_unit}
       C -3.63765e-01 -1.27354e-01  7.04585e-02
       O  8.58074e-01  2.74840e-01 -1.73312e-01
       H -5.16469e-02  8.16923e-01 -6.55484e-01
       H -3.99424e-01 -9.93648e-01  7.49297e-01
       L  2.92953e+00 -2.30783e+00 -5.30641e+00
       L -2.21291e+00  2.63061e+00  2.54568e+00
6
# CELL(abcABC):  459.05226   459.05226   459.05226    90.00000    90.00000    90.00000  Step:          11  Bead:       0 x_centroid{angstrom}  cell{atomic_unit}
       C -3.64208e-01 -1.29003e-01  6.96437e-02
       O  8.57697e-01  2.75849e-01 -1.72485e-01
       H -4.17086e-02  8.18646e-01 -6.54512e-01
       H -3.98241e-01 -9.91749e-01  7.44952e-01
       L  3.19316e+00 -2.47535e+00 -5.61942e+00
       L -2.21511e+00  2.79534e+00  2.76766e+00
6
# CELL(abcABC):  459.05226   459.05226   459.05226    90.00000    90.00000    90.00000  Step:          12  Bead:       0 x_centroid{angstrom}  cell{atomic_unit}
       C -3.64291e-01 -1.30876e-01  6.92418e-02
       O  8.56853e-01  2.76952e-01 -1.71827e-01
       H -2.92582e-02  8.21541e-01 -6.54110e-01
       H -3.96462e-01 -9.89825e-01  7.38990e-01
       L  3.48808e+00 -2.61377e+00 -5.93790e+00
       L -2.20172e+00  2.91816e+00  2.93084e+00
6
# CELL(abcABC):  459.05226   459.05226   459.05226    90.00000    90.00000    90.00000  Step:          13  Bead:       0 x_centroid{angstrom}  cell{atomic_unit}
       C -3.64147e-01 -1.32822e-01  6.86304e-02
       O  8.55576e-01  2.78084e-01 -1.71116e-01
       H -1.20937e-02  8.25539e-01 -6.53027e-01
       H -3.95180e-01 -9.88593e-01  7.33941e-01
       L  3.70485e+00 -2.72763e+00 -6.17279e+00
       L -2.21535e+00  3.01801e+00  3.08963e+00
6
# CELL(abcABC):  459.05226   459.05226   459.05226    90.00000    90.00000    90.00000  Step:          14  Bead:       0 x_centroid{angstrom}  cell{atomic_unit}
       C -3.63786e-01 -1.34843e-01  6.83452e-02
       O  8.53887e-01  2.79354e-01 -1.70515e-01
       H  8.70324e-03  8.29316e-01 -6.53310e-01
       H -3.93581e-01 -9.88474e-01  7.28117e-01
       L  3.88800e+00 -2.83200e+00 -6.33211e+00
       L -2.18306e+00  3.18380e+00  3.19980e+00
6
# CELL(abcABC):  459.05226   459.05226   459.05226    90.00000    90.00000    90.00000  Step:          15  Bead:       0 x_centroid{angstrom}  cell{atomic_unit}
       C -3.63211e-01 -1.36845e-01  6.81692e-02
       O  8.51702e-01  2.80566e-01 -1.69958e-01
       H  3.49126e-02  8.35534e-01 -6.54570e-01
       H -3.92141e-01 -9.90147e-01  7.22613e-01
       L  4.07594e+00 -2.82871e+00 -6.43423e+00
       L -2.03379e+00  3.32165e+00  3.30865e+00
6
# CELL(abcABC):  459.05226   459.05226   459.05226    90.00000    90.00000    90.00000  Step:          16  Bead:       0 x_centroid{angstrom}  cell{atomic_unit}
       C -3.62666e-01 -1.38891e-01  6.80177e-02
       O  8.49091e-01  2.81858e-01 -1.69580e-01
       H  6.82559e-02  8.43191e-01 -6.55497e-01
       H -3.90721e-01 -9.93965e-01  7.19328e-01
       L  4.24398e+00 -2.83023e+00 -6.49922e+00
       L -1.87156e+00  3.37485e+00  3.41813e+00
6
# CELL(abcABC):  459.05226   459.05226   459.05226    90.00000    90.00000    90.00000  Step:          17  Bead:       0 x_centroid{angstrom}  cell{atomic_unit}
       C -3.61873e-01 -1.41340e-01  6.77860e-02
       O  8.45811e-01  2.83409e-01 -1.69163e-01
       H  1.08692e-01  8.53746e-01 -6.57063e-01
       H -3.88657e-01 -9.99981e-01  7.16990e-01
       L  4.30824e+00 -2.80785e+00 -6.45462e+00
       L -1.72128e+00  3.41733e+00  3.46501e+00
6
# CELL(abcABC):  459.05226   459.05226   459.05226    90.00000    90.00000    90.00000  Step:          18  Bead:       0 x_centroid{angstrom}  cell{atomic_unit}
       C -3.61150e-01 -1.43942e-01  6.76643e-02
       O  8.42096e-01  2.85019e-01 -1.68809e-01
       H  1.56388e-01  8.66948e-01 -6.59080e-01
       H -3.86083e-01 -1.00773e+00  7.14801e-01
       L  4.31687e+00 -2.83253e+00 -6.39003e+00
       L -1.58597e+00  3.39599e+00  3.46196e+00
6
# CELL(abcABC):  459.05226   459.05226   459.05226    90.00000    90.00000    90.00000  Step:          19  Bead:       0 x_centroid{angstrom}  cell{atomic_unit}
       C -3.60714e-01 -1.47233e-01  6.76236e-02
       O  8.37942e-01  2.87090e-01 -1.68522e-01
       H  2.13246e-01  8.82603e-01 -6.62230e-01
       H -3.82274e-01 -1.01699e+00  7.13865e-01
       L  4.27811e+00 -2.84638e+00 -6.32194e+00
       L -1.38543e+00  3.33721e+00  3.41329e+00
6
# CELL(abcABC):  459.05226   459.05226   459.05226    90.00000    90.00000    90.00000  Step:          20  Bead:       0 x_centroid{angstrom}  cell{atomic_unit}
       C -3.60863e-01 -1.50800e-01  6.77478e-02
       O  8.33619e-01  2.89257e-01 -1.68385e-01
       H  2.77554e-01  9.01553e-01 -6.66546e-01
       H -3.76282e-01 -1.02776e+00  7.14511e-01
       L  4.19484e+00 -2.84734e+00 -6.26175e+00
       L -1.14009e+00  3.21338e+00  3.39691e+00
6
# CELL(abcABC):  459.05226   459.05226   459.05226    90.00000    90.00000    90.00000  Step:          21  Bead:       0 x_centroid{angstrom}  cell{atomic_unit}
       C -3.61632e-01 -1.54905e-01  6.82377e-02
       O  8.29122e-01  2.91723e-01 -1.68420e-01
       H  3.48515e-01  9.23333e-01 -6.73299e-01
       H -3.66810e-01 -1.03970e+00  7.15932e-01
       L  4.09960e+00 -2.88011e+00 -6.15384e+00
       L -8.21183e-01  3.09662e+00  3.38149e+00
6
# CELL(abcABC):  459.05226   459.05226   459.05226    90.00000    90.00000    90.00000  Step:          22  Bead:       0 x_centroid{angstrom}  cell{atomic_unit}
       C -3.62684e-01 -1.59572e-01  6.89805e-02
       O  8.24364e-01  2.94246e-01 -1.68446e-01
       H  4.24617e-01  9.49368e-01 -6.83318e-01
       H -3.54973e-01 -1.05008e+00  7.17419e-01
       L  3.95804e+00 -2.87464e+00 -5.95855e+00
       L -4.86907e-01  2.91870e+00  3.34937e+00
6
# CELL(abcABC):  459.05226   459.05226   459.05226    90.00000    90.00000    90.00000  Step:          23  Bead:       0 x_centroid{angstrom}  cell{atomic_unit}
       C -3.64114e-01 -1.64656e-01  7.00438e-02
       O  8.19438e-01  2.96640e-01 -1.68443e-01
       H  5.05651e-01  9.82002e-01 -6.96810e-01
       H -3.40834e-01 -1.06006e+00  7.18083e-01
       L  3.74385e+00 -2.83760e+00 -5.68919e+00
       L -1.46300e-01  2.75946e+00  3.27215e+00
6
# CELL(abcABC):  459.05226   459.05226   459.05226    90.00000    90.00000    90.00000  Step:          24  Bead:       0 x_centroid{angstrom}  cell{atomic_unit}
       C -3.65557e-01 -1.70012e-01  7.10559e-02
       O  8.14271e-01  2.98877e-01 -1.68246e-01
       H  5.88244e-01  1.01967e+00 -7.12302e-01
       H -3.24301e-01 -1.06931e+00  7.18204e-01
       L  3.51997e+00 -2.83403e+00 -5.31815e+00
       L  2.29440e-01  2.55630e+00  3.24098e+00
6
# CELL(abcABC):  459.05226   459.05226   459.05226    90.00000    90.00000    90.00000  Step:          25  Bead:       0 x_centroid{angstrom}  cell{atomic_unit}
       C -3.67211e-01 -1.75538e-01  7.20593e-02
       O  8.09001e-01  3.00995e-01 -1.67985e-01
       H  6.73294e-01  1.06110e+00 -7.28298e-01
       H -3.06063e-01 -1.07841e+00  7.17874e-01
       L  3.27374e+00 -2.83008e+00 -4.89903e+00
       L  5.95050e-01  2.34678e+00  3.23634e+00
6
# CELL(abcABC):  459.05226   459.05226   459.05226    90.00000    90.00000    90.00000  Step:          26  Bead:       0 x_centroid{angstrom}  cell{atomic_unit}
       C -3.69321e-01 -1.80889e-01  7.27404e-02
       O  8.03846e-01  3.03071e-01 -1.67498e-01
       H  7.58728e-01  1.10069e+00 -7.43150e-01
       H -2.84546e-01 -1.08702e+00  7.16635e-01
       L  3.01939e+00 -2.81222e+00 -4.46353e+00
       L  9.04211e-01  2.04715e+00  3.25970e+00
6
# CELL(abcABC):  459.05226   459.05226   459.05226    90.00000    90.00000    90.00000  Step:          27  Bead:       0 x_centroid{angstrom}  cell{atomic_unit}
       C -3.71628e-01 -1.86058e-01  7.32430e-02
       O  7.98834e-01  3.05215e-01 -1.67026e-01
       H  8.42210e-01  1.13644e+00 -7.54847e-01
       H -2.60962e-01 -1.09507e+00  7.14597e-01
       L  2.72841e+00 -2.77055e+00 -4.00167e+00
       L  1.17530e+00  1.75704e+00  3.28030e+00
6
# CELL(abcABC):  459.05226   459.05226   459.05226    90.00000    90.00000    90.00000  Step:          28  Bead:       0 x_centroid{angstrom}  cell{atomic_unit}
       C -3.74080e-01 -1.90945e-01  7.32094e-02
       O  7.93963e-01  3.07553e-01 -1.66233e-01
       H  9.23091e-01  1.16328e+00 -7.63557e-01
       H -2.35300e-01 -1.10069e+00  7.10859e-01
       L  2.40845e+00 -2.67774e+00 -3.54379e+00
       L  1.45659e+00  1.46353e+00  3.28809e+00
6
# CELL(abcABC):  459.05226   459.05226   459.05226    90.00000    90.00000    90.00000  Step:          29  Bead:       0 x_centroid{angstrom}  cell{atomic_unit}
       C -3.76671e-01 -1.95673e-01  7.29229e-02
       O  7.89334e-01  3.10163e-01 -1.65586e-01
       H  9.99999e-01  1.18266e+00 -7.65719e-01
       H -2.07780e-01 -1.10507e+00  7.05908e-01
       L  2.04726e+00 -2.54417e+00 -3.04604e+00
       L  1.68173e+00  1.18825e+00  3.24893e+00
6
# CELL(abcABC):  459.05226   459.05226   459.05226    90.00000    90.00000    90.00000  Step:          30  Bead:       0 x_centroid{angstrom}  cell{atomic_unit}
       C -3.79094e-01 -2.00186e-01  7.26348e-02
       O  7.84946e-01  3.13069e-01 -1.65308e-01
       H  1.07038e+00  1.19361e+00 -7.61251e-01
       H -1.79489e-01 -1.10825e+00  7.00196e-01
       L  1.63385e+00 -2.42360e+00 -2.51156e+00
       L  1.83098e+00  8.51877e-01  3.20122e+00
6
# CELL(abcABC):  459.05226   459.05226   459.05226    90.00000    90.00000    90.00000  Step:          31  Bead:       0 x_centroid{angstrom}  cell{atomic_unit}
       C -3.81559e-01 -2.04324e-01  7.20026e-02
       O  7.81039e-01  3.16121e-01 -1.65012e-01
       H  1.13344e+00  1.19628e+00 -7.51550e-01
       H -1.50979e-01 -1.10996e+00  6.93059e-01
       L  1.17034e+00 -2.25417e+00 -1.95813e+00
       L  1.96999e+00  4.92308e-01  3.15175e+00
6
# CELL(abcABC):  459.05226   459.05226   459.05226    90.00000    90.00000    90.00000  Step:          32  Bead:       0 x_centroid{angstrom}  cell{atomic_unit}
       C -3.84410e-01 -2.08087e-01  7.11265e-02
       O  7.77894e-01  3.19521e-01 -1.64873e-01
       H  1.18878e+00  1.18838e+00 -7.35586e-01
       H -1.22237e-01 -1.11111e+00  6.85083e-01
       L  6.79468e-01 -1.99351e+00 -1.43719e+00
       L  2.11928e+00  9.96892e-02  3.08476e+00
6
# CELL(abcABC):  459.05226   459.05226   459.05226    90.00000    90.00000    90.00000  Step:          33  Bead:       0 x_centroid{angstrom}  cell{atomic_unit}
       C -3.87275e-01 -2.11871e-01  7.00788e-02
       O  7.75365e-01  3.23462e-01 -1.64898e-01
       H  1.23473e+00  1.17003e+00 -7.12752e-01
       H -9.37231e-02 -1.11020e+00  6.74875e-01
       L  2.12606e-01 -1.68519e+00 -8.84653e-01
       L  2.26046e+00 -2.59051e-01  3.00384e+00
6
# CELL(abcABC):  459.05226   459.05226   459.05226    90.00000    90.00000    90.00000  Step:          34  Bead:       0 x_centroid{angstrom}  cell{atomic_unit}
       C -3.90166e-01 -2.15430e-01  6.91493e-02
       O  7.73402e-01  3.27685e-01 -1.65235e-01
       H  1.27173e+00  1.14346e+00 -6.84991e-01
       H -6.48914e-02 -1.10827e+00  6.63308e-01
       L -3.14985e-01 -1.39060e+00 -3.46794e-01
       L  2.38240e+00 -5.66141e-01  2.88910e+00
6
# CELL(abcABC):  459.05226   459.05226   459.05226    90.00000    90.00000    90.00000  Step:          35  Bead:       0 x_centroid{angstrom}  cell{atomic_unit}
       C -3.93188e-01 -2.18759e-01  6.76243e-02
       O  7.72222e-01  3.32130e-01 -1.65392e-01
       H  1.29735e+00  1.10995e+00 -6.52568e-01
       H -3.55543e-02 -1.10563e+00  6.51356e-01
       L -8.44294e-01 -1.08117e+00  1.84824e-01
       L  2.48407e+00 -8.84544e-01  2.72093e+00
6
# CELL(abcABC):  459.05226   459.05226   459.05226    90.00000    90.00000    90.00000  Step:          36  Bead:       0 x_centroid{angstrom}  cell{atomic_unit}
       C -3.96171e-01 -2.21697e-01  6.60057e-02
       O  7.71742e-01  3.36644e-01 -1.65747e-01
       H  1.31298e+00  1.06975e+00 -6.15634e-01
       H -7.74557e-03 -1.10209e+00  6.39139e-01
       L -1.39690e+00 -7.60978e-01  6.93599e-01
       L  2.53849e+00 -1.18167e+00  2.57229e+00
6
# CELL(abcABC):  459.05226   459.05226   459.05226    90.00000    90.00000    90.00000  Step:          37  Bead:       0 x_centroid{angstrom}  cell{atomic_unit}
       C -3.98944e-01 -2.24477e-01  6.42685e-02
       O  7.71818e-01  3.41126e-01 -1.66003e-01
       H  1.32045e+00  1.02713e+00 -5.77223e-01
       H  1.68534e-02 -1.09750e+00  6.25307e-01
       L -1.92926e+00 -4.13943e-01  1.20538e+00
       L  2.65585e+00 -1.49893e+00  2.41905e+00
6
# CELL(abcABC):  459.05226   459.05226   459.05226    90.00000    90.00000    90.00000  Step:          38  Bead:       0 x_centroid{angstrom}  cell{atomic_unit}
       C -4.01591e-01 -2.27012e-01  6.22998e-02
       O  7.72324e-01  3.45495e-01 -1.66118e-01
       H  1.32200e+00  9.83566e-01 -5.40122e-01
       H  3.90539e-02 -1.09313e+00  6.13318e-01
       L -2.45229e+00 -6.94904e-02  1.69735e+00
       L  2.74626e+00 -1.74601e+00  2.24128e+00
6
# CELL(abcABC):  459.05226   459.05226   459.05226    90.00000    90.00000    90.00000  Step:          39  Bead:       0 x_centroid{angstrom}  cell{atomic_unit}
       C -4.04091e-01 -2.29206e-01  5.99728e-02
       O  7.73052e-01  3.49342e-01 -1.65728e-01
       H  1.32127e+00  9.44773e-01 -5.06475e-01
       H  5.82253e-02 -1.08935e+00  6.01089e-01
       L -2.91402e+00  2.93037e-01  2.13230e+00
       L  2.80304e+00 -1.94212e+00  2.03330e+00
6
# CELL(abcABC):  459.05226   459.05226   459.05226    90.00000    90.00000    90.00000  Step:          40  Bead:       0 x_centroid{angstrom}  cell{atomic_unit}
       C -4.06273e-01 -2.30985e-01  5.75195e-02
       O  7.73741e-01  3.52284e-01 -1.64898e-01
       H  1.32261e+00  9.15409e-01 -4.79411e-01
       H  7.22559e-02 -1.08558e+00  5.89914e-01
       L -3.43113e+00  6.29910e-01  2.57519e+00
       L  2.79616e+00 -2.10839e+00  1.88469e+00
6
# CELL(abcABC):  459.05226   459.05226   459.05226    90.00000    90.00000    90.00000  Step:          41  Bead:       0 x_centroid{angstrom}  cell{atomic_unit}
       C -4.08044e-01 -2.32508e-01  5.51675e-02
       O  7.73824e-01  3.54072e-01 -1.63576e-01
       H  1.33153e+00  9.02305e-01 -4.60640e-01
       H  8.34159e-02 -1.08283e+00  5.78086e-01
       L -3.92059e+00  9.76616e-01  2.96675e+00
       L  2.73414e+00 -2.23821e+00  1.69056e+00
6
# CELL(abcABC):  459.05226   459.05226   459.05226    90.00000    90.00000    90.00000  Step:          42  Bead:       0 x_centroid{angstrom}  cell{atomic_unit}
       C -4.09439e-01 -2.33724e-01  5.26927e-02
       O  7.73210e-01  3.54651e-01 -1.61572e-01
       H  1.35158e+00  9.06343e-01 -4.52279e-01
       H  9.00335e-02 -1.08168e+00  5.67320e-01
       L -4.43060e+00  1.30094e+00  3.31980e+00
       L  2.68974e+00 -2.36625e+00  1.47929e+00
6
# CELL(abcABC):  459.05226   459.05226   459.05226    90.00000    90.00000    90.00000  Step:          43  Bead:       0 x_centroid{angstrom}  cell{atomic_unit}
       C -4.10369e-01 -2.35010e-01  5.02103e-02
       O  7.71842e-01  3.54376e-01 -1.59120e-01
       H  1.38128e+00  9.26007e-01 -4.51743e-01
       H  9.34137e-02 -1.08175e+00  5.57394e-01
       L -4.88846e+00  1.59751e+00  3.63096e+00
       L  2.64060e+00 -2.46338e+00  1.27214e+00
6
# CELL(abcABC):  459.05226   459.05226   459.05226    90.00000    90.00000    90.00000  Step:          44  Bead:       0 x_centroid{angstrom}  cell{atomic_unit}
       C -4.10662e-01 -2.36360e-01  4.78124e-02
       O  7.70023e-01  3.53571e-01 -1.56377e-01
       H  1.41543e+00  9.55710e-01 -4.56660e-01
       H  9.18919e-02 -1.08269e+00  5.47327e-01
       L -5.31459e+00  1.89148e+00  3.94870e+00
       L  2.55830e+00 -2.57417e+00  9.80116e-01
6
# CELL(abcABC):  459.05226   459.05226   459.05226    90.00000    90.00000    90.00000  Step:          45  Bead:       0 x_centroid{angstrom}  cell{atomic_unit}
       C -4.10211e-01 -2.37499e-01  4.49752e-02
       O  7.68084e-01  3.52585e-01 -1.53345e-01
       H  1.44725e+00  9.87754e-01 -4.63712e-01
       H  8.57319e-02 -1.08565e+00  5.40061e-01
       L -5.70062e+00  2.20179e+00  4.23524e+00
       L  2.49142e+00 -2.62333e+00  6.84262e-01
6
# CELL(abcABC):  459.05226   459.05226   459.05226    90.00000    90.00000    90.00000  Step:          46  Bead:       0 x_centroid{angstrom}  cell{atomic_unit}
       C -4.09470e-01 -2.38473e-01  4.22178e-02
       O  7.66533e-01  3.51658e-01 -1.50382e-01
       H  1.47376e+00  1.01903e+00 -4.70943e-01
       H  7.52469e-02 -1.09074e+00  5.33165e-01
       L -6.00118e+00  2.49082e+00  4.48767e+00
       L  2.35090e+00 -2.65750e+00  3.51770e-01
6
# CELL(abcABC):  459.05226   459.05226   459.05226    90.00000    90.00000    90.00000  Step:          47  Bead:       0 x_centroid{angstrom}  cell{atomic_unit}
       C -4.08390e-01 -2.39040e-01  3.93724e-02
       O  7.65669e-01  3.50785e-01 -1.47501e-01
       H  1.48943e+00  1.04726e+00 -4.76397e-01
       H  6.06768e-02 -1.09853e+00  5.26869e-01
       L -6.26987e+00  2.75870e+00  4.67033e+00
       L  2.15896e+00 -2.64823e+00  3.17385e-02
6
# CELL(abcABC):  459.05226   459.05226   459.05226    90.00000    90.00000    90.00000  Step:          48  Bead:       0 x_centroid{angstrom}  cell{atomic_unit}
       C -4.07025e-01 -2.39386e-01  3.61954e-02
       O  7.65425e-01  3.50135e-01 -1.44600e-01
       H  1.49436e+00  1.07156e+00 -4.79290e-01
       H  4.35703e-02 -1.10856e+00  5.21656e-01
       L -6.51274e+00  3.05877e+00  4.79147e+00
       L  1.97563e+00 -2.61179e+00 -2.56798e-01
6
# CELL(abcABC):  459.05226   459.05226   459.05226    90.00000    90.00000    90.00000  Step:          49  Bead:       0 x_centroid{angstrom}  cell{atomic_unit}
       C -4.05282e-01 -2.39525e-01  3.29321e-02
       O  7.65818e-01  3.49831e-01 -1.41755e-01
       H  1.48630e+00  1.08953e+00 -4.80393e-01
       H  2.48239e-02 -1.12019e+00  5.16577e-01
       L -6.71286e+00  3.28244e+00  4.86217e+00
       L  1.83251e+00 -2.57932e+00 -5.07596e-01
6
# CELL(abcABC):  459.05226   459.05226   459.05226    90.00000    90.00000    90.00000  Step:          50  Bead:       0 x_centroid{angstrom}  cell{atomic_unit}
       C -4.03346e-01 -2.39084e-01  2.94559e-02
       O  7.67001e-01  3.49655e-01 -1.38905e-01
       H  1.46565e+00  1.09984e+00 -4.78823e-01
       H  3.84286e-03 -1.13311e+00  5.11292e-01
       L -6.93540e+00  3.48764e+00  4.91020e+00
       L  1.63808e+00 -2.49904e+00 -7.35394e-01
6
# CELL(abcABC):  459.05226   459.05226   459.05226    90.00000    90.00000    90.00000  Step:          51  Bead:       0 x_centroid{angstrom}  cell{atomic_unit}
       C -4.01305e-01 -2.38633e-01  2.56750e-02
       O  7.68956e-01  3.49874e-01 -1.36044e-01
       H  1.43243e+00  1.10490e+00 -4.74231e-01
       H -1.80305e-02 -1.14717e+00  5.06463e-01
       L -7.09277e+00  3.69974e+00  4.90265e+00
       L  1.34915e+00 -2.42295e+00 -9.56545e-01
6
# CELL(abcABC):  459.05226   459.05226   459.05226    90.00000    90.00000    90.00000  Step:          52  Bead:       0 x_centroid{angstrom}  cell{atomic_unit}
       C -3.99080e-01 -2.37921e-01  2.18596e-02
       O  7.71677e-01  3.50349e-01 -1.33255e-01
       H  1.38698e+00  1.10384e+00 -4.68237e-01
       H -4.20819e-02 -1.16229e+00  5.01746e-01
       L -7.20278e+00  3.85682e+00  4.90144e+00
       L  1.05587e+00 -2.30821e+00 -1.10940e+00
6
# CELL(abcABC):  459.05226   459.05226   459.05226    90.00000    90.00000    90.00000  Step:          53  Bead:       0 x_centroid{angstrom}  cell{atomic_unit}
       C -3.96582e-01 -2.36895e-01  1.77425e-02
       O  7.74865e-01  3.50858e-01 -1.30239e-01
       H  1.33180e+00  1.09888e+00 -4.61151e-01
       H -6.70764e-02 -1.17782e+00  4.95924e-01
       L -7.26448e+00  3.98727e+00  4.86645e+00
       L  7.63591e-01 -2.09688e+00 -1.21637e+00
6
# CELL(abcABC):  459.05226   459.05226   459.05226    90.00000    90.00000    90.00000  Step:          54  Bead:       0 x_centroid{angstrom}  cell{atomic_unit}
       C -3.94151e-01 -2.35921e-01  1.35683e-02
       O  7.78621e-01  3.51523e-01 -1.27158e-01
       H  1.26799e+00  1.09195e+00 -4.53639e-01
       H -9.16981e-02 -1.19329e+00  4.89311e-01
       L -7.25994e+00  4.13067e+00  4.80161e+00
       L  4.81273e-01 -1.80660e+00 -1.27128e+00
6
# CELL(abcABC):  459.05226   459.05226   459.05226    90.00000    90.00000    90.00000  Step:          55  Bead:       0 x_centroid{angstrom}  cell{atomic_unit}
       C -3.91393e-01 -2.35013e-01  9.34084e-03
       O  7.82402e-01  3.52045e-01 -1.23963e-01
       H  1.19881e+00  1.08664e+00 -4.46948e-01
       H -1.15285e-01 -1.20733e+00  4.82352e-01
       L -7.19100e+00  4.30361e+00  4.69905e+00
       L  1.95213e-01 -1.52883e+00 -1.30472e+00
6
# CELL(abcABC):  459.05226   459.05226   459.05226    90.00000    90.00000    90.00000  Step:          56  Bead:       0 x_centroid{angstrom}  cell{atomic_unit}
       C -3.88337e-01 -2.33705e-01  4.96295e-03
       O  7.86011e-01  3.51646e-01 -1.20379e-01
       H  1.12764e+00  1.08986e+00 -4.44450e-01
       H -1.37785e-01 -1.22004e+00  4.75230e-01
       L -6.99248e+00  4.44458e+00  4.54693e+00
       L -5.82155e-02 -1.21957e+00 -1.32066e+00
6
# CELL(abcABC):  459.05226   459.05226   459.05226    90.00000    90.00000    90.00000  Step:          57  Bead:       0 x_centroid{angstrom}  cell{atomic_unit}
       C -3.85228e-01 -2.32055e-01  6.09442e-04
       O  7.89525e-01  3.50133e-01 -1.16421e-01
       H  1.05673e+00  1.10533e+00 -4.47832e-01
       H -1.59714e-01 -1.23142e+00  4.67813e-01
       L -6.72437e+00  4.58352e+00  4.29345e+00
       L -2.98833e-01 -9.10610e-01 -1.33813e+00
6
# CELL(abcABC):  459.05226   459.05226   459.05226    90.00000    90.00000    90.00000  Step:          58  Bead:       0 x_centroid{angstrom}  cell{atomic_unit}
       C -3.81918e-01 -2.30487e-01 -4.31168e-03
       O  7.92872e-01  3.47684e-01 -1.11539e-01
       H  9.85350e-01  1.13492e+00 -4.57788e-01
       H -1.81014e-01 -1.24103e+00  4.59056e-01
       L -6.33995e+00  4.70987e+00  4.02697e+00
       L -4.88771e-01 -6.11110e-01 -1.34815e+00
6
# CELL(abcABC):  459.05226   459.05226   459.05226    90.00000    90.00000    90.00000  Step:          59  Bead:       0 x_centroid{angstrom}  cell{atomic_unit}
       C -3.78367e-01 -2.28838e-01 -9.10899e-03
       O  7.96071e-01  3.44314e-01 -1.06309e-01
       H  9.12319e-01  1.17554e+00 -4.73136e-01
       H -2.01185e-01 -1.24801e+00  4.48665e-01
       L -5.95093e+00  4.80539e+00  3.78431e+00
       L -6.67628e-01 -3.25934e-01 -1.30075e+00
6
# CELL(abcABC):  459.05226   459.05226   459.05226    90.00000    90.00000    90.00000  Step:          60  Bead:       0 x_centroid{angstrom}  cell{atomic_unit}
       C -3.74622e-01 -2.27175e-01 -1.39825e-02
       O  7.99256e-01  3.40505e-01 -1.01006e-01
       H  8.36886e-01  1.22133e+00 -4.90224e-01
       H -2.21086e-01 -1.25333e+00  4.39731e-01
       L -5.50793e+00  4.82526e+00  3.53941e+00
       L -8.27016e-01 -7.27022e-02 -1.21050e+00
6
# CELL(abcABC):  459.05226   459.05226   459.05226    90.00000    90.00000    90.00000  Step:          61  Bead:       0 x_centroid{angstrom}  cell{atomic_unit}
       C -3.71249e-01 -2.25398e-01 -1.88070e-02
       O  8.02731e-01  3.36624e-01 -9.57607e-02
       H  7.60429e-01  1.26538e+00 -5.07851e-01
       H -2.40139e-01 -1.25701e+00  4.31645e-01
       L -5.00833e+00  4.72450e+00  3.25920e+00
       L -1.04929e+00  1.50806e-01 -1.03342e+00
6
# CELL(abcABC):  459.05226   459.05226   459.05226    90.00000    90.00000    90.00000  Step:          62  Bead:       0 x_centroid{angstrom}  cell{atomic_unit}
       C -3.68055e-01 -2.23551e-01 -2.38269e-02
       O  8.06282e-01  3.33042e-01 -9.05799e-02
       H  6.83177e-01  1.30218e+00 -5.21789e-01
       H -2.57500e-01 -1.25899e+00  4.23230e-01
       L -4.40072e+00  4.60861e+00  2.94069e+00
       L -1.31275e+00  3.31318e-01 -8.38779e-01
6
# CELL(abcABC):  459.05226   459.05226   459.05226    90.00000    90.00000    90.00000  Step:          63  Bead:       0 x_centroid{angstrom}  cell{atomic_unit}
       C -3.64990e-01 -2.21805e-01 -2.89190e-02
       O  8.09807e-01  3.30015e-01 -8.54777e-02
       H  6.06629e-01  1.32854e+00 -5.31072e-01
       H -2.73654e-01 -1.25814e+00  4.12306e-01
       L -3.78805e+00  4.48448e+00  2.54601e+00
       L -1.53158e+00  5.07071e-01 -6.32242e-01
6
# CELL(abcABC):  459.05226   459.05226   459.05226    90.00000    90.00000    90.00000  Step:          64  Bead:       0 x_centroid{angstrom}  cell{atomic_unit}
       C -3.61780e-01 -2.20002e-01 -3.35058e-02
       O  8.12860e-01  3.27554e-01 -8.09519e-02
       H  5.33813e-01  1.34270e+00 -5.36215e-01
       H -2.87828e-01 -1.25472e+00  4.00345e-01
       L -3.10797e+00  4.30840e+00  2.16520e+00
       L -1.68792e+00  6.88856e-01 -3.96522e-01
6
# CELL(abcABC):  459.05226   459.05226   459.05226    90.00000    90.00000    90.00000  Step:          65  Bead:       0 x_centroid{angstrom}  cell{atomic_unit}
       C -3.58784e-01 -2.18520e-01 -3.78238e-02
       O  8.15518e-01  3.25913e-01 -7.70029e-02
       H  4.66887e-01  1.34543e+00 -5.34634e-01
       H -2.99126e-01 -1.24905e+00  3.87686e-01
       L -2.40359e+00  4.10106e+00  1.68909e+00
       L -1.78358e+00  8.80515e-01 -1.99537e-01
6
# CELL(abcABC):  459.05226   459.05226   459.05226    90.00000    90.00000    90.00000  Step:          66  Bead:       0 x_centroid{angstrom}  cell{atomic_unit}
       C -3.56143e-01 -2.17056e-01 -4.21205e-02