6
# CELL(abcABC):  459.05226   459.05226   459.05226    90.00000    90.00000    90.00000  Step:           0  Bead:       0 x_centroid{angstrom}  cell{atomic_unit}
       C -3.39887e-01 -1.13437e-01  8.06659e-02
       O  8.43483e-01  2.62672e-01 -1.81512e-01
       H -7.35799e-02  8.16467e-01 -6.61432e-01
       H -4.30016e-01 -9.65701e-01  7.62278e-01
       L  0.00000e+00  0.00000e+00  0.00000e+00
       L  0.00000e+00  0.00000e+00  0.00000e+00
6
# CELL(abcABC):  459.05226   459.05226   459.05226    90.00000    90.00000    90.00000  Step:           1  Bead:       0 x_centroid{angstrom}  cell{atomic_unit}
       C -3.40905e-01 -1.10617e-01  7.86619e-02
       O  8.44283e-01  2.60914e-01 -1.78816e-01
       H -7.69539e-02  8.15613e-01 -6.59790e-01
       H -4.27278e-01 -9.70736e-01  7.41421e-01
       L  3.04730e-01  4.09084e-01  2.75596e-01
       L -1.58921e-01 -7.64390e-02  2.51756e-01
6
# CELL(abcABC):  459.05226   459.05226   459.05226    90.00000    90.00000    90.00000  Step:           2  Bead:       0 x_centroid{angstrom}  cell{atomic_unit}
       C -3.41913e-01 -1.07757e-01  7.70363e-02
       O  8.45116e-01  2.59044e-01 -1.76532e-01
       H -8.07375e-02  8.15148e-01 -6.58629e-01
       H -4.24795e-01 -9.74837e-01  7.23080e-01
       L  5.54765e-01  8.17842e-01  5.14290e-01
       L -2.49896e-01 -1.66771e-01  5.72056e-01
6
# CELL(abcABC):  459.05226   459.05226   459.05226    90.00000    90.00000    90.00000  Step:           3  Bead:       0 x_centroid{angstrom}  cell{atomic_unit}
       C -3.42606e-01 -1.04616e-01  7.53369e-02
       O  8.45795e-01  2.56948e-01 -1.74296e-01
       H -8.42265e-02  8.15772e-01 -6.56315e-01
       H -4.23951e-01 -9.79784e-01  7.05256e-01
       L  7.95000e-01  1.25686e+00  7.85000e-01
       L -2.80280e-01 -3.28855e-01  7.97441e-01
6
# CELL(abcABC):  459.05226   459.05226   459.05226    90.00000    90.00000    90.00000  Step:           4  Bead:       0 x_centroid{angstrom}  cell{atomic_unit}
       C -3.43167e-01 -1.01135e-01  7.36485e-02
       O  8.46532e-01  2.54647e-01 -1.72191e-01
       H -8.90747e-02  8.16380e-01 -6.53119e-01
       H -4.24213e-01 -9.85472e-01  6.88492e-01
       L  1.01124e+00  1.69055e+00  1.03809e+00
       L -2.96074e-01 -5.21797e-01  1.02547e+00
6
# CELL(abcABC):  459.05226   459.05226   459.05226    90.00000    90.00000    90.00000  Step:           5  Bead:       0 x_centroid{angstrom}  cell{atomic_unit}
       C -3.43617e-01 -9.75925e-02  7.20583e-02
       O  8.47382e-01  2.52328e-01 -1.70041e-01
       H -9.63628e-02  8.18119e-01 -6.51708e-01
       H -4.25208e-01 -9.92775e-01  6.71624e-01
       L  1.25926e+00  2.14537e+00  1.28111e+00
       L -2.85200e-01 -6.67356e-01  1.29290e+00
6
# CELL(abcABC):  459.05226   459.05226   459.05226    90.00000    90.00000    90.00000  Step:           6  Bead:       0 x_centroid{angstrom}  cell{atomic_unit}
       C -3.44002e-01 -9.40351e-02  7.03695e-02
       O  8.48391e-01  2.49987e-01 -1.67853e-01
       H -1.05717e-01  8.20791e-01 -6.49487e-01
       H -4.27442e-01 -1.00087e+00  6.54492e-01
       L  1.49030e+00  2.60586e+00  1.53996e+00
       L -2.22190e-01 -7.76342e-01  1.59308e+00
6
# CELL(abcABC):  459.05226   459.05226   459.05226    90.00000    90.00000    90.00000  Step:           7  Bead:       0 x_centroid{angstrom}  cell{atomic_unit}
       C -3.44356e-01 -9.03144e-02  6.85821e-02
       O  8.49642e-01  2.47487e-01 -1.65510e-01
       H -1.16818e-01  8.23855e-01 -6.48252e-01
       H -4.32118e-01 -1.00877e+00  6.37083e-01
       L  1.69020e+00  3.03177e+00  1.77421e+00
       L -1.64552e-01 -8.65432e-01  1.89943e+00
6
# CELL(abcABC):  459.05226   459.05226   459.05226    90.00000    90.00000    90.00000  Step:           8  Bead:       0 x_centroid{angstrom}  cell{atomic_unit}
       C -3.44340e-01 -8.61355e-02  6.67662e-02
       O  8.50999e-01  2.44657e-01 -1.63234e-01
       H -1.33217e-01  8.27589e-01 -6.45509e-01
       H -4.37562e-01 -1.01755e+00  6.19593e-01
       L  1.84233e+00  3.44042e+00  2.01355e+00
       L -1.06349e-01 -9.69505e-01  2.13650e+00
6
# CELL(abcABC):  459.05226   459.05226   459.05226    90.00000    90.00000    90.00000  Step:           9  Bead:       0 x_centroid{angstrom}  cell{atomic_unit}
       C -3.43846e-01 -8.20217e-02  6.45779e-02
       O  8.52458e-01  2.41872e-01 -1.60805e-01
       H -1.55929e-01  8.31405e-01 -6.41602e-01
       H -4.43993e-01 -1.02633e+00  6.02950e-01
       L  1.99025e+00  3.83817e+00  2.25276e+00
       L -6.29337e-02 -1.06589e+00  2.35509e+00
6
# CELL(abcABC):  459.05226   459.05226   459.05226    90.00000    90.00000    90.00000  Step:          10  Bead:       0 x_centroid{angstrom}  cell{atomic_unit}
       C -3.42905e-01 -7.74423e-02  6.21392e-02
       O  8.54326e-01  2.38830e-01 -1.58231e-01
       H -1.87068e-01  8.34953e-01 -6.37011e-01
       H -4.53772e-01 -1.03630e+00  5.86353e-01
       L  2.08289e+00  4.14862e+00  2.41982e+00
       L -6.55206e-02 -1.14820e+00  2.55649e+00
6
# CELL(abcABC):  459.05226   459.05226   459.05226    90.00000    90.00000    90.00000  Step:          11  Bead:       0 x_centroid{angstrom}  cell{atomic_unit}
       C -3.41321e-01 -7.26252e-02  5.95236e-02
       O  8.56366e-01  2.35587e-01 -1.55407e-01
       H -2.25897e-01  8.37574e-01 -6.33468e-01
       H -4.66242e-01 -1.04497e+00  5.69001e-01
       L  2.13533e+00  4.44320e+00  2.54220e+00
       L -5.18935e-02 -1.19680e+00  2.72581e+00
6
# CELL(abcABC):  459.05226   459.05226   459.05226    90.00000    90.00000    90.00000  Step:          12  Bead:       0 x_centroid{angstrom}  cell{atomic_unit}
       C -3.39061e-01 -6.73546e-02  5.64865e-02
       O  8.58679e-01  2.31975e-01 -1.52261e-01
       H -2.74503e-01  8.39329e-01 -6.29533e-01
       H -4.81347e-01 -1.05230e+00  5.51131e-01
       L  2.21085e+00  4.65330e+00  2.67917e+00
       L -1.91484e-02 -1.22560e+00  2.93238e+00
6
# CELL(abcABC):  459.05226   459.05226   459.05226    90.00000    90.00000    90.00000  Step:          13  Bead:       0 x_centroid{angstrom}  cell{atomic_unit}
       C -3.36170e-01 -6.19824e-02  5.30364e-02
       O  8.61362e-01  2.28310e-01 -1.48794e-01
       H -3.35052e-01  8.39350e-01 -6.25492e-01
       H -4.97843e-01 -1.05820e+00  5.32994e-01
       L  2.25659e+00  4.83599e+00  2.86318e+00
       L -2.69491e-02 -1.33179e+00  3.08039e+00
6
# CELL(abcABC):  459.05226   459.05226   459.05226    90.00000    90.00000    90.00000  Step:          14  Bead:       0 x_centroid{angstrom}  cell{atomic_unit}
       C -3.32097e-01 -5.66139e-02  4.90570e-02
       O  8.64061e-01  2.24524e-01 -1.44993e-01
       H -4.06626e-01  8.37730e-01 -6.18446e-01
       H -5.17725e-01 -1.06045e+00  5.12865e-01
       L  2.30626e+00  4.94381e+00  3.02669e+00
       L  4.69747e-02 -1.43969e+00  3.21914e+00
6
# CELL(abcABC):  459.05226   459.05226   459.05226    90.00000    90.00000    90.00000  Step:          15  Bead:       0 x_centroid{angstrom}  cell{atomic_unit}
       C -3.26910e-01 -5.08383e-02  4.44214e-02
       O  8.66919e-01  2.20348e-01 -1.40790e-01
       H -4.90859e-01  8.33467e-01 -6.09205e-01
       H -5.40694e-01 -1.05870e+00  4.92039e-01
       L  2.29822e+00  5.01180e+00  3.14608e+00
       L  1.24363e-01 -1.54599e+00  3.29866e+00
6
# CELL(abcABC):  459.05226   459.05226   459.05226    90.00000    90.00000    90.00000  Step:          16  Bead:       0 x_centroid{angstrom}  cell{atomic_unit}
       C -3.20779e-01 -4.44837e-02  3.91911e-02
       O  8.69879e-01  2.15506e-01 -1.36177e-01
       H -5.86917e-01  8.28494e-01 -5.98202e-01
       H -5.64726e-01 -1.05258e+00  4.70080e-01
       L  2.32468e+00  5.02859e+00  3.22780e+00
       L  1.78705e-01 -1.60823e+00  3.30414e+00
6
# CELL(abcABC):  459.05226   459.05226   459.05226    90.00000    90.00000    90.00000  Step:          17  Bead:       0 x_centroid{angstrom}  cell{atomic_unit}
       C -3.13562e-01 -3.78825e-02  3.34448e-02
       O  8.72734e-01  2.10382e-01 -1.31388e-01
       H -6.92774e-01  8.21651e-01 -5.82876e-01
       H -5.90183e-01 -1.04300e+00  4.47222e-01
       L  2.29099e+00  4.99854e+00  3.23346e+00
       L  2.24098e-01 -1.67955e+00  3.28266e+00
6
# CELL(abcABC):  459.05226   459.05226   459.05226    90.00000    90.00000    90.00000  Step:          18  Bead:       0 x_centroid{angstrom}  cell{atomic_unit}
       C -3.05438e-01 -3.10457e-02  2.72144e-02
       O  8.75414e-01  2.05018e-01 -1.26408e-01
       H -8.04969e-01  8.10866e-01 -5.63755e-01
       H -6.17367e-01 -1.02849e+00  4.23300e-01
       L  2.26511e+00  4.97175e+00  3.22578e+00
       L  2.85506e-01 -1.73039e+00  3.29266e+00
6
# CELL(abcABC):  459.05226   459.05226   459.05226    90.00000    90.00000    90.00000  Step:          19  Bead:       0 x_centroid{angstrom}  cell{atomic_unit}
       C -2.96745e-01 -2.35138e-02  2.05751e-02
       O  8.77939e-01  1.99376e-01 -1.21350e-01
       H -9.20770e-01  7.94164e-01 -5.40822e-01
       H -6.45240e-01 -1.01195e+00  3.99204e-01
       L  2.24701e+00  4.90339e+00  3.22267e+00
       L  3.26776e-01 -1.72279e+00  3.27888e+00
6
# CELL(abcABC):  459.05226   459.05226   459.05226    90.00000    90.00000    90.00000  Step:          20  Bead:       0 x_centroid{angstrom}  cell{atomic_unit}
       C -2.87745e-01 -1.58694e-02  1.34187e-02
       O  8.80295e-01  1.93720e-01 -1.16221e-01
       H -1.03640e+00  7.73273e-01 -5.12300e-01
       H -6.74265e-01 -9.92312e-01  3.74579e-01
       L  2.19894e+00  4.77453e+00  3.19487e+00
       L  4.01413e-01 -1.71215e+00  3.23693e+00
6
# CELL(abcABC):  459.05226   459.05226   459.05226    90.00000    90.00000    90.00000  Step:          21  Bead:       0 x_centroid{angstrom}  cell{atomic_unit}
       C -2.78919e-01 -8.15369e-03  5.57101e-03
       O  8.82758e-01  1.88206e-01 -1.10816e-01
       H -1.14975e+00  7.46292e-01 -4.80329e-01
       H -7.05197e-01 -9.69690e-01  3.50381e-01
       L  2.15060e+00  4.61534e+00  3.16845e+00
       L  4.68398e-01 -1.65240e+00  3.14616e+00
6
# CELL(abcABC):  459.05226   459.05226   459.05226    90.00000    90.00000    90.00000  Step:          22  Bead:       0 x_centroid{angstrom}  cell{atomic_unit}
       C -2.70479e-01 -2.15769e-04 -2.78697e-03
       O  8.85095e-01  1.82634e-01 -1.05279e-01
       H -1.25630e+00  7.15672e-01 -4.44002e-01
       H -7.36316e-01 -9.45160e-01  3.25871e-01
       L  2.11204e+00  4.45556e+00  3.10858e+00
       L  5.40380e-01 -1.58976e+00  2.99894e+00
6
# CELL(abcABC):  459.05226   459.05226   459.05226    90.00000    90.00000    90.00000  Step:          23  Bead:       0 x_centroid{angstrom}  cell{atomic_unit}
       C -2.62654e-01  7.84907e-03 -1.17232e-02
       O  8.87300e-01  1.77065e-01 -9.97046e-02
       H -1.35422e+00  6.81827e-01 -4.03309e-01
       H -7.66625e-01 -9.18960e-01  3.03344e-01
       L  2.04442e+00  4.30563e+00  3.02497e+00
       L  5.68954e-01 -1.54539e+00  2.78592e+00
6
# CELL(abcABC):  459.05226   459.05226   459.05226    90.00000    90.00000    90.00000  Step:          24  Bead:       0 x_centroid{angstrom}  cell{atomic_unit}
       C -2.55690e-01  1.58817e-02 -2.08941e-02
       O  8.89428e-01  1.71731e-01 -9.41637e-02
       H -1.44303e+00  6.46822e-01 -3.60742e-01
       H -7.94570e-01 -8.94940e-01  2.82337e-01
       L  2.00074e+00  4.14906e+00  2.87419e+00
       L  5.99235e-01 -1.51130e+00  2.51021e+00
6
# CELL(abcABC):  459.05226   459.05226   459.05226    90.00000    90.00000    90.00000  Step:          25  Bead:       0 x_centroid{angstrom}  cell{atomic_unit}
       C -2.49980e-01  2.36368e-02 -3.03773e-02
       O  8.91686e-01  1.66671e-01 -8.85807e-02
       H -1.52111e+00  6.12152e-01 -3.17888e-01
       H -8.20373e-01 -8.72250e-01  2.64123e-01
       L  1.99059e+00  3.92551e+00  2.70337e+00
       L  6.02495e-01 -1.47547e+00  2.20328e+00
6
# CELL(abcABC):  459.05226   459.05226   459.05226    90.00000    90.00000    90.00000  Step:          26  Bead:       0 x_centroid{angstrom}  cell{atomic_unit}
       C -2.45806e-01  3.10157e-02 -3.96311e-02
       O  8.94154e-01  1.61965e-01 -8.33550e-02
       H -1.58778e+00  5.78571e-01 -2.74861e-01
       H -8.42606e-01 -8.51766e-01  2.48678e-01
       L  1.95002e+00  3.63276e+00  2.55831e+00
       L  6.27164e-01 -1.43251e+00  1.87028e+00
6
# CELL(abcABC):  459.05226   459.05226   459.05226    90.00000    90.00000    90.00000  Step:          27  Bead:       0 x_centroid{angstrom}  cell{atomic_unit}
       C -2.43047e-01  3.79062e-02 -4.87312e-02
       O  8.96707e-01  1.57498e-01 -7.83052e-02
       H -1.64401e+00  5.48966e-01 -2.30769e-01
       H -8.59756e-01 -8.33185e-01  2.33149e-01
       L  1.88679e+00  3.27273e+00  2.39356e+00
       L  6.32028e-01 -1.39895e+00  1.51372e+00
6
# CELL(abcABC):  459.05226   459.05226   459.05226    90.00000    90.00000    90.00000  Step:          28  Bead:       0 x_centroid{angstrom}  cell{atomic_unit}
       C -2.41911e-01  4.41212e-02 -5.75460e-02
       O  8.99429e-01  1.53438e-01 -7.34866e-02
       H -1.68926e+00  5.23591e-01 -1.87915e-01
       H -8.71173e-01 -8.17207e-01  2.19124e-01
       L  1.75917e+00  2.88621e+00  2.23230e+00
       L  6.39592e-01 -1.40034e+00  1.16186e+00
6
# CELL(abcABC):  459.05226   459.05226   459.05226    90.00000    90.00000    90.00000  Step:          29  Bead:       0 x_centroid{angstrom}  cell{atomic_unit}
       C -2.42556e-01  4.99202e-02 -6.63572e-02
       O  9.02356e-01  1.49512e-01 -6.85645e-02
       H -1.72441e+00  5.03635e-01 -1.47377e-01
       H -8.74751e-01 -8.03859e-01  2.05712e-01
       L  1.62000e+00  2.49744e+00  2.09276e+00
       L  6.78258e-01 -1.34030e+00  8.23875e-01
6
# CELL(abcABC):  459.05226   459.05226   459.05226    90.00000    90.00000    90.00000  Step:          30  Bead:       0 x_centroid{angstrom}  cell{atomic_unit}
       C -2.44862e-01  5.48386e-02 -7.48317e-02
       O  9.05457e-01  1.46112e-01 -6.37563e-02
       H -1.75024e+00  4.89257e-01 -1.09883e-01
       H -8.70567e-01 -7.93973e-01  1.93165e-01
       L  1.44614e+00  2.09582e+00  1.90833e+00
       L  6.75919e-01 -1.21063e+00  4.80922e-01
6
# CELL(abcABC):  459.05226   459.05226   459.05226    90.00000    90.00000    90.00000  Step:          31  Bead:       0 x_centroid{angstrom}  cell{atomic_unit}
       C -2.48452e-01  5.92290e-02 -8.28176e-02
       O  9.08555e-01  1.42880e-01 -5.91279e-02
       H -1.76743e+00  4.80995e-01 -7.60793e-02
       H -8.59698e-01 -7.86600e-01  1.81434e-01
       L  1.24856e+00  1.71175e+00  1.59695e+00
       L  7.06877e-01 -1.06056e+00  9.34891e-02
6
# CELL(abcABC):  459.05226   459.05226   459.05226    90.00000    90.00000    90.00000  Step:          32  Bead:       0 x_centroid{angstrom}  cell{atomic_unit}
       C -2.53221e-01  6.31911e-02 -9.02064e-02
       O  9.11479e-01  1.39884e-01 -5.48938e-02
       H -1.77422e+00  4.78154e-01 -4.36574e-02
       H -8.42397e-01 -7.83253e-01  1.70207e-01
       L  1.08601e+00  1.28546e+00  1.28344e+00
       L  7.15419e-01 -9.26591e-01 -2.51041e-01
6
# CELL(abcABC):  459.05226   459.05226   459.05226    90.00000    90.00000    90.00000  Step:          33  Bead:       0 x_centroid{angstrom}  cell{atomic_unit}
       C -2.59100e-01  6.67832e-02 -9.72824e-02
       O  9.14292e-01  1.37231e-01 -5.08433e-02
       H -1.77039e+00  4.80631e-01 -1.32573e-02
       H -8.20746e-01 -7.86233e-01  1.60174e-01
       L  8.83952e-01  8.22275e-01  1.03301e+00
       L  7.47534e-01 -7.92102e-01 -6.34011e-01
6
# CELL(abcABC):  459.05226   459.05226   459.05226    90.00000    90.00000    90.00000  Step:          34  Bead:       0 x_centroid{angstrom}  cell{atomic_unit}
       C -2.65709e-01  6.99977e-02 -1.04026e-01
       O  9.16823e-01  1.34930e-01 -4.67770e-02
       H -1.75687e+00  4.87519e-01  1.39091e-02
       H -7.95569e-01 -7.94769e-01  1.49165e-01
       L  6.90046e-01  3.87617e-01  7.90720e-01
       L  7.60326e-01 -6.09305e-01 -1.03389e+00
6
# CELL(abcABC):  459.05226   459.05226   459.05226    90.00000    90.00000    90.00000  Step:          35  Bead:       0 x_centroid{angstrom}  cell{atomic_unit}
       C -2.72783e-01  7.29702e-02 -1.10144e-01
       O  9.18840e-01  1.32962e-01 -4.29936e-02
       H -1.73337e+00  4.99905e-01  3.76980e-02
       H -7.66677e-01 -8.11222e-01  1.38580e-01
       L  4.66668e-01  8.96060e-03  5.47269e-01
       L  7.62720e-01 -4.47679e-01 -1.42944e+00
6
# CELL(abcABC):  459.05226   459.05226   459.05226    90.00000    90.00000    90.00000  Step:          36  Bead:       0 x_centroid{angstrom}  cell{atomic_unit}
       C -2.80388e-01  7.56534e-02 -1.15880e-01
       O  9.20537e-01  1.31434e-01 -3.92728e-02
       H -1.69995e+00  5.17137e-01  5.84723e-02
       H -7.36342e-01 -8.36037e-01  1.27368e-01
       L  3.22350e-01 -3.73326e-01  3.64191e-01
       L  7.70321e-01 -3.18880e-01 -1.75042e+00
6
# CELL(abcABC):  459.05226   459.05226   459.05226    90.00000    90.00000    90.00000  Step:          37  Bead:       0 x_centroid{angstrom}  cell{atomic_unit}
       C -2.88423e-01  7.77724e-02 -1.20655e-01
       O  9.21787e-01  1.30314e-01 -3.60709e-02
       H -1.65607e+00  5.39580e-01  7.67725e-02
       H -7.04253e-01 -8.65810e-01  1.15408e-01
       L  1.90148e-01 -7.45346e-01  1.28953e-01
       L  7.89635e-01 -2.04796e-01 -2.00458e+00
6
# CELL(abcABC):  459.05226   459.05226   459.05226    90.00000    90.00000    90.00000  Step:          38  Bead:       0 x_centroid{angstrom}  cell{atomic_unit}
       C -2.96949e-01  7.96396e-02 -1.24784e-01
       O  9.22638e-01  1.29356e-01 -3.30790e-02
       H -1.60084e+00  5.67028e-01  9.22666e-02
       H -6.71347e-01 -9.00146e-01  1.01859e-01
       L  1.90583e-02 -1.12772e+00 -5.81614e-02
       L  8.60290e-01 -9.54634e-02 -2.25138e+00
6
# CELL(abcABC):  459.05226   459.05226   459.05226    90.00000    90.00000    90.00000  Step:          39  Bead:       0 x_centroid{angstrom}  cell{atomic_unit}
       C -3.05563e-01  8.08910e-02 -1.28261e-01
       O  9.22799e-01  1.28821e-01 -3.00942e-02
       H -1.53431e+00  5.98106e-01  1.03002e-01
       H -6.37689e-01 -9.37504e-01  8.54154e-02
       L -1.99132e-01 -1.47095e+00 -2.78175e-01
       L  9.13506e-01 -6.32267e-03 -2.46252e+00
6
# CELL(abcABC):  459.05226   459.05226   459.05226    90.00000    90.00000    90.00000  Step:          40  Bead:       0 x_centroid{angstrom}  cell{atomic_unit}
       C -3.14207e-01  8.15773e-02 -1.30968e-01
       O  9.22258e-01  1.28619e-01 -2.72030e-02
       H -1.45629e+00  6.31318e-01  1.09415e-01
       H -6.03993e-01 -9.75548e-01  6.55779e-02
       L -4.25077e-01 -1.81667e+00 -4.96302e-01
       L  9.00186e-01  8.84468e-02 -2.65143e+00
6
# CELL(abcABC):  459.05226   459.05226   459.05226    90.00000    90.00000    90.00000  Step:          41  Bead:       0 x_centroid{angstrom}  cell{atomic_unit}
       C -3.22518e-01  8.11528e-02 -1.32743e-01
       O  9.20856e-01  1.28988e-01 -2.45714e-02
       H -1.36732e+00  6.66771e-01  1.12099e-01
       H -5.71481e-01 -1.01169e+00  4.24381e-02
       L -7.09877e-01 -2.12857e+00 -6.68797e-01
       L  8.48537e-01  1.71497e-01 -2.78607e+00
6
# CELL(abcABC):  459.05226   459.05226   459.05226    90.00000    90.00000    90.00000  Step:          42  Bead:       0 x_centroid{angstrom}  cell{atomic_unit}
       C -3.30579e-01  7.97117e-02 -1.33739e-01
       O  9.18868e-01  1.29961e-01 -2.20640e-02
       H -1.26865e+00  7.02871e-01  1.11016e-01
       H -5.42375e-01 -1.04597e+00  1.57578e-02
       L -9.25648e-01 -2.38726e+00 -8.19854e-01
       L  7.51038e-01  2.70043e-01 -2.94024e+00
6
# CELL(abcABC):  459.05226   459.05226   459.05226    90.00000    90.00000    90.00000  Step:          43  Bead:       0 x_centroid{angstrom}  cell{atomic_unit}
       C -3.37806e-01  7.71061e-02 -1.34155e-01
       O  9.16177e-01  1.31484e-01 -1.96157e-02
       H -1.16550e+00  7.39816e-01  1.07088e-01
       H -5.16509e-01 -1.07599e+00 -1.40591e-02
       L -1.17953e+00 -2.60460e+00 -9.42588e-01
       L  6.61448e-01  3.93732e-01 -3.11608e+00
6
# CELL(abcABC):  459.05226   459.05226   459.05226    90.00000    90.00000    90.00000  Step:          44  Bead:       0 x_centroid{angstrom}  cell{atomic_unit}
       C -3.43862e-01  7.34867e-02 -1.34131e-01
       O  9.12745e-01  1.33284e-01 -1.72948e-02
       H -1.06037e+00  7.78858e-01  1.01883e-01
       H -4.94820e-01 -1.10043e+00 -4.58504e-02
       L -1.39678e+00 -2.77825e+00 -1.05151e+00
       L  5.55065e-01  4.86264e-01 -3.23832e+00
6
# CELL(abcABC):  459.05226   459.05226   459.05226    90.00000    90.00000    90.00000  Step:          45  Bead:       0 x_centroid{angstrom}  cell{atomic_unit}
       C -3.48205e-01  6.87936e-02 -1.33603e-01
       O  9.08460e-01  1.35113e-01 -1.52215e-02
       H -9.57385e-01  8.22118e-01  9.67322e-02
       H -4.77869e-01 -1.11673e+00 -7.98061e-02
       L -1.58287e+00 -2.90604e+00 -1.15941e+00
       L  4.29737e-01  4.93858e-01 -3.30716e+00
6
# CELL(abcABC):  459.05226   459.05226   459.05226    90.00000    90.00000    90.00000  Step:          46  Bead:       0 x_centroid{angstrom}  cell{atomic_unit}
       C -3.50666e-01  6.24873e-02 -1.32746e-01
       O  9.03490e-01  1.37164e-01 -1.32117e-02
       H -8.61517e-01  8.73395e-01  9.24563e-02
       H -4.65382e-01 -1.12536e+00 -1.17601e-01
       L -1.69387e+00 -3.01097e+00 -1.21524e+00
       L  2.82041e-01  4.98694e-01 -3.32647e+00
6
# CELL(abcABC):  459.05226   459.05226   459.05226    90.00000    90.00000    90.00000  Step:          47  Bead:       0 x_centroid{angstrom}  cell{atomic_unit}
       C -3.51307e-01  5.47267e-02 -1.31673e-01
       O  8.98181e-01  1.39328e-01 -1.13832e-02
       H -7.74949e-01  9.34029e-01  8.93168e-02
       H -4.59898e-01 -1.12780e+00 -1.56269e-01
       L -1.78358e+00 -3.10935e+00 -1.26847e+00
       L  1.19091e-01  4.67967e-01 -3.28193e+00
6
# CELL(abcABC):  459.05226   459.05226   459.05226    90.00000    90.00000    90.00000  Step:          48  Bead:       0 x_centroid{angstrom}  cell{atomic_unit}
       C -3.49811e-01  4.55947e-02 -1.30454e-01
       O  8.92171e-01  1.41652e-01 -9.61892e-03
       H -6.97231e-01  1.00188e+00  8.60401e-02
       H -4.59913e-01 -1.12367e+00 -1.95574e-01
       L -1.85680e+00 -3.18046e+00 -1.26991e+00
       L -4.88599e-02  4.32645e-01 -3.19413e+00
6
# CELL(abcABC):  459.05226   459.05226   459.05226    90.00000    90.00000    90.00000  Step:          49  Bead:       0 x_centroid{angstrom}  cell{atomic_unit}
       C -3.46227e-01  3.57909e-02 -1.29273e-01
       O  8.85641e-01  1.43887e-01 -7.76453e-03
       H -6.28197e-01  1.07117e+00  8.23138e-02
       H -4.67890e-01 -1.11156e+00 -2.35432e-01
       L -1.84905e+00 -3.18757e+00 -1.26106e+00
       L -2.70137e-01  3.40010e-01 -3.05975e+00
6
# CELL(abcABC):  459.05226   459.05226   459.05226    90.00000    90.00000    90.00000  Step:          50  Bead:       0 x_centroid{angstrom}  cell{atomic_unit}
       C -3.41059e-01  2.57582e-02 -1.27419e-01
       O  8.78758e-01  1.46057e-01 -6.26884e-03
       H -5.67159e-01  1.13770e+00  7.64008e-02
       H -4.81117e-01 -1.09295e+00 -2.75470e-01
       L -1.79855e+00 -3.14160e+00 -1.21332e+00
       L -5.38294e-01  2.20932e-01 -2.88988e+00
6
# CELL(abcABC):  459.05226   459.05226   459.05226    90.00000    90.00000    90.00000  Step:          51  Bead:       0 x_centroid{angstrom}  cell{atomic_unit}
       C -3.34442e-01  1.62130e-02 -1.25227e-01
       O  8.71794e-01  1.47919e-01 -4.89710e-03
       H -5.14774e-01  1.19760e+00  6.83190e-02
       H -5.01747e-01 -1.06863e+00 -3.15423e-01
       L -1.70617e+00 -3.08206e+00 -1.19719e+00
       L -7.72538e-01  1.06695e-01 -2.64314e+00
6
# CELL(abcABC):  459.05226   459.05226   459.05226    90.00000    90.00000    90.00000  Step:          52  Bead:       0 x_centroid{angstrom}  cell{atomic_unit}
       C -3.26906e-01  7.42942e-03 -1.22769e-01
       O  8.64954e-01  1.49629e-01 -3.59773e-03
       H -4.69708e-01  1.24862e+00  5.77816e-02
       H -5.27991e-01 -1.04208e+00 -3.54944e-01
       L -1.62969e+00 -3.01095e+00 -1.21691e+00
       L -9.37967e-01 -4.75952e-02 -2.35416e+00
6
# CELL(abcABC):  459.05226   459.05226   459.05226    90.00000    90.00000    90.00000  Step:          53  Bead:       0 x_centroid{angstrom}  cell{atomic_unit}
       C -3.18522e-01 -2.48679e-04 -1.20337e-01
       O  8.58315e-01  1.51092e-01 -2.19076e-03
       H -4.33737e-01  1.28891e+00  4.52648e-02
       H -5.58458e-01 -1.01402e+00 -3.93864e-01
       L -1.51508e+00 -2.97594e+00 -1.26670e+00
       L -1.10159e+00 -2.42243e-01 -2.08789e+00
6
# CELL(abcABC):  459.05226   459.05226   459.05226    90.00000    90.00000    90.00000  Step:          54  Bead:       0 x_centroid{angstrom}  cell{atomic_unit}
       C -3.09368e-01 -6.46180e-03 -1.17827e-01
       O  8.52054e-01  1.52127e-01 -7.93071e-04
       H -4.07040e-01  1.31808e+00  3.21207e-02
       H -5.94755e-01 -9.85468e-01 -4.32952e-01
       L -1.46340e+00 -2.94636e+00 -1.31500e+00
       L -1.33671e+00 -4.72799e-01 -1.78897e+00
6
# CELL(abcABC):  459.05226   459.05226   459.05226    90.00000    90.00000    90.00000  Step:          55  Bead:       0 x_centroid{angstrom}  cell{atomic_unit}
       C -3.00160e-01 -1.12541e-02 -1.15174e-01
       O  8.46762e-01  1.52785e-01  5.83819e-04
       H -3.90934e-01  1.33796e+00  1.68876e-02
       H -6.36478e-01 -9.58613e-01 -4.71348e-01
       L -1.38672e+00 -2.86498e+00 -1.28531e+00
       L -1.58323e+00 -6.94203e-01 -1.52559e+00
6
# CELL(abcABC):  459.05226   459.05226   459.05226    90.00000    90.00000    90.00000  Step:          56  Bead:       0 x_centroid{angstrom}  cell{atomic_unit}
       C -2.90897e-01 -1.44074e-02 -1.12575e-01
       O  8.42362e-01  1.52936e-01  1.96229e-03
       H -3.84937e-01  1.34785e+00  1.76679e-03
       H -6.82936e-01 -9.33252e-01 -5.09233e-01
       L -1.26007e+00 -2.75620e+00 -1.28290e+00
       L -1.84313e+00 -9.32760e-01 -1.24715e+00
6
# CELL(abcABC):  459.05226   459.05226   459.05226    90.00000    90.00000    90.00000  Step:          57  Bead:       0 x_centroid{angstrom}  cell{atomic_unit}
       C -2.82237e-01 -1.59844e-02 -1.09639e-01
       O  8.39249e-01  1.52627e-01  3.20336e-03
       H -3.88962e-01  1.34789e+00 -1.49210e-02
       H -7.32631e-01 -9.09516e-01 -5.47412e-01
       L -1.18313e+00 -2.66845e+00 -1.23727e+00
       L -2.04329e+00 -1.15116e+00 -9.57500e-01
6
# CELL(abcABC):  459.05226   459.05226   459.05226    90.00000    90.00000    90.00000  Step:          58  Bead:       0 x_centroid{angstrom}  cell{atomic_unit}
       C -2.74494e-01 -1.61615e-02 -1.06960e-01
       O  8.37549e-01  1.51742e-01  4.64119e-03
       H -4.03199e-01  1.33869e+00 -3.34935e-02
       H -7.83611e-01 -8.84084e-01 -5.83808e-01
       L -1.09983e+00 -2.57682e+00 -1.14957e+00
       L -2.25158e+00 -1.39870e+00 -6.37821e-01
6
# CELL(abcABC):  459.05226   459.05226   459.05226    90.00000    90.00000    90.00000  Step:          59  Bead:       0 x_centroid{angstrom}  cell{atomic_unit}
       C -2.67730e-01 -1.50433e-02 -1.04657e-01
       O  8.37238e-01  1.50615e-01  6.29423e-03
       H -4.26791e-01  1.31935e+00 -5.31344e-02
       H -8.35611e-01 -8.60107e-01 -6.18055e-01
       L -1.02341e+00 -2.44690e+00 -1.07565e+00
       L -2.43879e+00 -1.65700e+00 -3.21638e-01
6
# CELL(abcABC):  459.05226   459.05226   459.05226    90.00000    90.00000    90.00000  Step:          60  Bead:       0 x_centroid{angstrom}  cell{atomic_unit}
       C -2.62198e-01 -1.23206e-02 -1.03158e-01
       O  8.38298e-01  1.48576e-01  8.22393e-03
       H -4.59286e-01  1.29064e+00 -7.21895e-02
       H -8.85846e-01 -8.31500e-01 -6.47694e-01
       L -8.97983e-01 -2.22321e+00 -9.99498e-01
       L -2.60206e+00 -1.84141e+00 -3.61861e-02
6
# CELL(abcABC):  459.05226   459.05226   459.05226    90.00000    90.00000    90.00000  Step:          61  Bead:       0 x_centroid{angstrom}  cell{atomic_unit}
       C -2.58298e-01 -8.44883e-03 -1.02248e-01
       O  8.40960e-01  1.46037e-01  1.03560e-02
       H -5.00210e-01  1.25449e+00 -9.14344e-02
       H -9.33633e-01 -8.01233e-01 -6.73329e-01
       L -8.05803e-01 -1.93940e+00 -9.31701e-01
       L -2.73469e+00 -2.03692e+00  2.42527e-01
6
# CELL(abcABC):  459.05226   459.05226   459.05226    90.00000    90.00000    90.00000  Step:          62  Bead:       0 x_centroid{angstrom}  cell{atomic_unit}
       C -2.55914e-01 -3.74725e-03 -1.02078e-01
       O  8.45077e-01  1.43322e-01  1.27543e-02
       H -5.49599e-01  1.21018e+00 -1.11366e-01
       H -9.78029e-01 -7.69920e-01 -6.93731e-01
       L -6.55176e-01 -1.60533e+00 -8.01867e-01
       L -2.80966e+00 -2.23686e+00  5.56217e-01
6
# CELL(abcABC):  459.05226   459.05226   459.05226    90.00000    90.00000    90.00000  Step:          63  Bead:       0 x_centroid{angstrom}  cell{atomic_unit}
       C -2.55283e-01  1.72946e-03 -1.02484e-01
       O  8.50539e-01  1.40219e-01  1.51814e-02
       H -6.05619e-01  1.16064e+00 -1.29959e-01
       H -1.01629e+00 -7.36483e-01 -7.09085e-01
       L -5.16488e-01 -1.27264e+00 -6.39477e-01
       L -2.85729e+00 -2.37880e+00  8.73849e-01
6
# CELL(abcABC):  459.05226   459.05226   459.05226    90.00000    90.00000    90.00000  Step:          64  Bead:       0 x_centroid{angstrom}  cell{atomic_unit}
       C -2.56605e-01  8.54017e-03 -1.03591e-01
       O  8.57341e-01  1.36366e-01  1.77608e-02
       H -6.66537e-01  1.10559e+00 -1.47509e-01
       H -1.04766e+00 -7.01575e-01 -7.19539e-01
       L -3.51500e-01 -9.10296e-01 -4.74360e-01
       L -2.89610e+00 -2.49820e+00  1.16925e+00
6
# CELL(abcABC):  459.05226   459.05226   459.05226    90.00000    90.00000    90.00000  Step:          65  Bead:       0 x_centroid{angstrom}  cell{atomic_unit}
       C -2.59624e-01  1.64086e-02 -1.05659e-01
       O  8.65103e-01  1.31975e-01  2.05528e-02
       H -7.30666e-01  1.04640e+00 -1.61657e-01
       H -1.07087e+00 -6.66560e-01 -7.25311e-01
       L -1.31505e-01 -6.17429e-01 -3.17634e-01
       L -2.92221e+00 -2.55234e+00  1.45071e+00
6
# CELL(abcABC):  459.05226   459.05226   459.05226    90.00000    90.00000    90.00000  Step:          66  Bead:       0 x_centroid{angstrom}  cell{atomic_unit}
       C -2.64193e-01  2.50505e-02 -1.08926e-01