6
# CELL(abcABC):  459.05226   459.05226   459.05226    90.00000    90.00000    90.00000  Step:           0  Bead:       0 x_centroid{angstrom}  cell{atomic_unit}
       C -3.39887e-01 -1.13437e-01  8.06659e-02
       O  8.43483e-01  2.62672e-01 -1.81512e-01
       H -7.35799e-02  8.16467e-01 -6.61432e-01
       H -4.30016e-01 -9.65701e-01  7.62278e-01
       L  0.00000e+00  0.00000e+00  0.00000e+00
       L  0.00000e+00  0.00000e+00  0.00000e+00
6
# CELL(abcABC):  459.05226   459.05226   459.05226    90.00000    90.00000    90.00000  Step:           1  Bead:       0 x_centroid{angstrom}  cell{atomic_unit}
       C -3.38046e-01 -1.13448e-01  8.30464e-02
       O  8.41570e-01  2.61172e-01 -1.82504e-01
       H -6.03277e-02  8.24263e-01 -6.63261e-01
       H -4.34602e-01 -9.49777e-01  7.51867e-01
       L -3.56799e-01  1.92615e-01 -1.50954e-01
       L -6.98269e-02  1.83725e-01 -5.46882e-01
6
# CELL(abcABC):  459.05226   459.05226   459.05226    90.00000    90.00000    90.00000  Step:           2  Bead:       0 x_centroid{angstrom}  cell{atomic_unit}
       C -3.36476e-01 -1.13733e-01  8.53885e-02
       O  8.39993e-01  2.60020e-01 -1.83488e-01
       H -4.77714e-02  8.31169e-01 -6.65689e-01
       H -4.40626e-01 -9.35180e-01  7.42342e-01
       L -6.87971e-01  3.48820e-01 -2.47256e-01
       L -1.03439e-01  3.71459e-01 -1.08319e+00
6
# CELL(abcABC):  459.05226   459.05226   459.05226    90.00000    90.00000    90.00000  Step:           3  Bead:       0 x_centroid{angstrom}  cell{atomic_unit}
       C -3.35103e-01 -1.13784e-01  8.77459e-02
       O  8.38415e-01  2.58811e-01 -1.84789e-01
       H -3.27166e-02  8.38834e-01 -6.65993e-01
       H -4.46794e-01 -9.23235e-01  7.35509e-01
       L -1.02655e+00  5.31479e-01 -3.11625e-01
       L -1.45990e-01  5.38614e-01 -1.56579e+00
6
# CELL(abcABC):  459.05226   459.05226   459.05226    90.00000    90.00000    90.00000  Step:           4  Bead:       0 x_centroid{angstrom}  cell{atomic_unit}
       C -3.34348e-01 -1.13896e-01  8.98119e-02
       O  8.36957e-01  2.58082e-01 -1.86119e-01
       H -1.37534e-02  8.46068e-01 -6.66162e-01
       H -4.51418e-01 -9.17735e-01  7.32475e-01
       L -1.31990e+00  7.04392e-01 -4.19451e-01
       L -2.10500e-01  6.92815e-01 -2.02151e+00
6
# CELL(abcABC):  459.05226   459.05226   459.05226    90.00000    90.00000    90.00000  Step:           5  Bead:       0 x_centroid{angstrom}  cell{atomic_unit}
       C -3.33719e-01 -1.13600e-01  9.17706e-02
       O  8.35309e-01  2.57326e-01 -1.87514e-01
       H  8.25836e-03  8.53619e-01 -6.66150e-01
       H -4.54602e-01 -9.17006e-01  7.31557e-01
       L -1.58658e+00  9.42401e-01 -5.20150e-01
       L -2.32495e-01  7.88816e-01 -2.45132e+00
6
# CELL(abcABC):  459.05226   459.05226   459.05226    90.00000    90.00000    90.00000  Step:           6  Bead:       0 x_centroid{angstrom}  cell{atomic_unit}
       C -3.33562e-01 -1.12996e-01  9.32167e-02
       O  8.33718e-01  2.56756e-01 -1.88845e-01
       H  3.53602e-02  8.61078e-01 -6.64962e-01
       H -4.58189e-01 -9.22786e-01  7.34538e-01
       L -1.81407e+00  1.19199e+00 -6.17245e-01
       L -2.53224e-01  8.64814e-01 -2.85501e+00
6
# CELL(abcABC):  459.05226   459.05226   459.05226    90.00000    90.00000    90.00000  Step:           7  Bead:       0 x_centroid{angstrom}  cell{atomic_unit}
       C -3.34469e-01 -1.12383e-01  9.45313e-02
       O  8.32630e-01  2.56461e-01 -1.90175e-01
       H  6.73605e-02  8.68864e-01 -6.65751e-01
       H -4.61936e-01 -9.33399e-01  7.41008e-01
       L -2.05504e+00  1.42058e+00 -7.01230e-01
       L -3.47041e-01  9.93672e-01 -3.21119e+00
6
# CELL(abcABC):  459.05226   459.05226   459.05226    90.00000    90.00000    90.00000  Step:           8  Bead:       0 x_centroid{angstrom}  cell{atomic_unit}
       C -3.36166e-01 -1.11837e-01  9.57114e-02
       O  8.31585e-01  2.56425e-01 -1.91666e-01
       H  1.06550e-01  8.76453e-01 -6.67235e-01
       H -4.64150e-01 -9.47102e-01  7.52291e-01
       L -2.23928e+00  1.62222e+00 -7.45598e-01
       L -4.52035e-01  1.13541e+00 -3.53697e+00
6
# CELL(abcABC):  459.05226   459.05226   459.05226    90.00000    90.00000    90.00000  Step:           9  Bead:       0 x_centroid{angstrom}  cell{atomic_unit}
       C -3.38878e-01 -1.11344e-01  9.73379e-02
       O  8.30705e-01  2.56535e-01 -1.93590e-01
       H  1.53636e-01  8.85311e-01 -6.69170e-01
       H -4.64818e-01 -9.63760e-01  7.65555e-01
       L -2.39454e+00  1.81531e+00 -7.51285e-01
       L -5.69917e-01  1.25961e+00 -3.81569e+00
6
# CELL(abcABC):  459.05226   459.05226   459.05226    90.00000    90.00000    90.00000  Step:          10  Bead:       0 x_centroid{angstrom}  cell{atomic_unit}
       C -3.42466e-01 -1.11415e-01  9.91629e-02
       O  8.29720e-01  2.57057e-01 -1.95652e-01
       H  2.09641e-01  8.95878e-01 -6.72941e-01
       H -4.62294e-01 -9.81879e-01  7.80401e-01
       L -2.53407e+00  1.93234e+00 -7.10172e-01
       L -6.78755e-01  1.36872e+00 -4.04014e+00
6
# CELL(abcABC):  459.05226   459.05226   459.05226    90.00000    90.00000    90.00000  Step:          11  Bead:       0 x_centroid{angstrom}  cell{atomic_unit}
       C -3.46797e-01 -1.12071e-01  1.01177e-01
       O  8.28496e-01  2.57830e-01 -1.97714e-01
       H  2.74821e-01  9.08162e-01 -6.79360e-01
       H -4.56326e-01 -9.98727e-01  7.95601e-01
       L -2.65740e+00  2.00592e+00 -5.83937e-01
       L -7.48289e-01  1.48535e+00 -4.24154e+00
6
# CELL(abcABC):  459.05226   459.05226   459.05226    90.00000    90.00000    90.00000  Step:          12  Bead:       0 x_centroid{angstrom}  cell{atomic_unit}
       C -3.52214e-01 -1.13413e-01  1.03294e-01
       O  8.27456e-01  2.58860e-01 -1.99663e-01
       H  3.48352e-01  9.23642e-01 -6.87547e-01
       H -4.48695e-01 -1.01463e+00  8.09504e-01
       L -2.73969e+00  2.05501e+00 -4.09458e-01
       L -8.47747e-01  1.57345e+00 -4.43758e+00
6
# CELL(abcABC):  459.05226   459.05226   459.05226    90.00000    90.00000    90.00000  Step:          13  Bead:       0 x_centroid{angstrom}  cell{atomic_unit}
       C -3.58570e-01 -1.15444e-01  1.05672e-01
       O  8.26482e-01  2.60076e-01 -2.01432e-01
       H  4.29013e-01  9.42592e-01 -6.99191e-01
       H -4.38074e-01 -1.02870e+00  8.20853e-01
       L -2.83516e+00  2.08683e+00 -1.77850e-01
       L -9.19899e-01  1.57898e+00 -4.60878e+00
6
# CELL(abcABC):  459.05226   459.05226   459.05226    90.00000    90.00000    90.00000  Step:          14  Bead:       0 x_centroid{angstrom}  cell{atomic_unit}
       C -3.65646e-01 -1.17798e-01  1.08564e-01
       O  8.25631e-01  2.61080e-01 -2.03122e-01
       H  5.12756e-01  9.66729e-01 -7.14850e-01
       H -4.23923e-01 -1.04073e+00  8.28823e-01
       L -2.93057e+00  2.07773e+00  6.26306e-02
       L -9.46784e-01  1.59593e+00 -4.74280e+00
6
# CELL(abcABC):  459.05226   459.05226   459.05226    90.00000    90.00000    90.00000  Step:          15  Bead:       0 x_centroid{angstrom}  cell{atomic_unit}
       C -3.73273e-01 -1.20861e-01  1.12140e-01
       O  8.24813e-01  2.62127e-01 -2.04809e-01
       H  5.99829e-01  9.95819e-01 -7.34286e-01
       H -4.07088e-01 -1.04989e+00  8.32344e-01
       L -3.02325e+00  2.01427e+00  3.37339e-01
       L -9.22710e-01  1.56637e+00 -4.85527e+00
6
# CELL(abcABC):  459.05226   459.05226   459.05226    90.00000    90.00000    90.00000  Step:          16  Bead:       0 x_centroid{angstrom}  cell{atomic_unit}
       C -3.81059e-01 -1.24273e-01  1.16092e-01
       O  8.23887e-01  2.63094e-01 -2.06438e-01
       H  6.87722e-01  1.02736e+00 -7.56179e-01
       H -3.87443e-01 -1.05607e+00  8.32875e-01
       L -3.08657e+00  1.99483e+00  5.94051e-01
       L -9.75378e-01  1.47768e+00 -4.90559e+00
6
# CELL(abcABC):  459.05226   459.05226   459.05226    90.00000    90.00000    90.00000  Step:          17  Bead:       0 x_centroid{angstrom}  cell{atomic_unit}
       C -3.88939e-01 -1.27871e-01  1.19997e-01
       O  8.22756e-01  2.64075e-01 -2.07880e-01
       H  7.77148e-01  1.05783e+00 -7.78834e-01
       H -3.64949e-01 -1.05923e+00  8.31735e-01
       L -3.17554e+00  2.02899e+00  8.47184e-01
       L -9.91558e-01  1.42183e+00 -4.84896e+00
6
# CELL(abcABC):  459.05226   459.05226   459.05226    90.00000    90.00000    90.00000  Step:          18  Bead:       0 x_centroid{angstrom}  cell{atomic_unit}
       C -3.96825e-01 -1.31540e-01  1.23880e-01
       O  8.21570e-01  2.64965e-01 -2.09222e-01
       H  8.65666e-01  1.08633e+00 -7.99863e-01
       H -3.40662e-01 -1.05812e+00  8.27584e-01
       L -3.20037e+00  2.02043e+00  1.13046e+00
       L -9.96467e-01  1.40440e+00 -4.76427e+00
6
# CELL(abcABC):  459.05226   459.05226   459.05226    90.00000    90.00000    90.00000  Step:          19  Bead:       0 x_centroid{angstrom}  cell{atomic_unit}
       C -4.04783e-01 -1.35209e-01  1.27766e-01
       O  8.20437e-01  2.66038e-01 -2.10546e-01
       H  9.51436e-01  1.10826e+00 -8.18058e-01
       H -3.13627e-01 -1.05334e+00  8.20313e-01
       L -3.22795e+00  1.98911e+00  1.38616e+00
       L -9.65968e-01  1.38660e+00 -4.69558e+00
6
# CELL(abcABC):  459.05226   459.05226   459.05226    90.00000    90.00000    90.00000  Step:          20  Bead:       0 x_centroid{angstrom}  cell{atomic_unit}
       C -4.12574e-01 -1.38926e-01  1.31564e-01
       O  8.19329e-01  2.67449e-01 -2.11961e-01
       H  1.03343e+00  1.12220e+00 -8.31946e-01
       H -2.85212e-01 -1.04535e+00  8.11231e-01
       L -3.22631e+00  1.98941e+00  1.63455e+00
       L -9.32628e-01  1.33069e+00 -4.60331e+00
6
# CELL(abcABC):  459.05226   459.05226   459.05226    90.00000    90.00000    90.00000  Step:          21  Bead:       0 x_centroid{angstrom}  cell{atomic_unit}
       C -4.20031e-01 -1.42315e-01  1.34977e-01
       O  8.18195e-01  2.68985e-01 -2.13359e-01
       H  1.10952e+00  1.12744e+00 -8.38338e-01
       H -2.54484e-01 -1.03452e+00  7.98932e-01
       L -3.18247e+00  1.97733e+00  1.86908e+00
       L -9.02613e-01  1.23624e+00 -4.48161e+00
6
# CELL(abcABC):  459.05226   459.05226   459.05226    90.00000    90.00000    90.00000  Step:          22  Bead:       0 x_centroid{angstrom}  cell{atomic_unit}
       C -4.27167e-01 -1.45252e-01  1.38250e-01
       O  8.17302e-01  2.70700e-01 -2.15043e-01
       H  1.17767e+00  1.12297e+00 -8.38422e-01
       H -2.23426e-01 -1.02218e+00  7.86574e-01
       L -3.11263e+00  1.94063e+00  2.07528e+00
       L -9.46498e-01  1.07336e+00 -4.35531e+00
6
# CELL(abcABC):  459.05226   459.05226   459.05226    90.00000    90.00000    90.00000  Step:          23  Bead:       0 x_centroid{angstrom}  cell{atomic_unit}
       C -4.33787e-01 -1.47932e-01  1.41145e-01
       O  8.16471e-01  2.72685e-01 -2.16808e-01
       H  1.23681e+00  1.10962e+00 -8.31349e-01
       H -1.90547e-01 -1.00826e+00  7.72813e-01
       L -3.01991e+00  1.85420e+00  2.29077e+00
       L -9.46279e-01  8.87764e-01 -4.19599e+00
6
# CELL(abcABC):  459.05226   459.05226   459.05226    90.00000    90.00000    90.00000  Step:          24  Bead:       0 x_centroid{angstrom}  cell{atomic_unit}
       C -4.40034e-01 -1.49862e-01  1.43714e-01
       O  8.16011e-01  2.74699e-01 -2.18697e-01
       H  1.28513e+00  1.08732e+00 -8.17648e-01
       H -1.57159e-01 -9.94770e-01  7.58268e-01
       L -2.91004e+00  1.76224e+00  2.51385e+00
       L -9.92393e-01  7.01110e-01 -4.01686e+00
6
# CELL(abcABC):  459.05226   459.05226   459.05226    90.00000    90.00000    90.00000  Step:          25  Bead:       0 x_centroid{angstrom}  cell{atomic_unit}
       C -4.45974e-01 -1.51233e-01  1.45807e-01
       O  8.15998e-01  2.76775e-01 -2.20606e-01
       H  1.32282e+00  1.05762e+00 -7.97479e-01
       H -1.23909e-01 -9.81548e-01  7.43256e-01
       L -2.81662e+00  1.68131e+00  2.64430e+00
       L -1.00891e+00  5.27449e-01 -3.75283e+00
6
# CELL(abcABC):  459.05226   459.05226   459.05226    90.00000    90.00000    90.00000  Step:          26  Bead:       0 x_centroid{angstrom}  cell{atomic_unit}
       C -4.51202e-01 -1.51919e-01  1.47755e-01
       O  8.16148e-01  2.78994e-01 -2.22889e-01
       H  1.35011e+00  1.01973e+00 -7.71348e-01
       H -9.13500e-02 -9.70546e-01  7.29946e-01
       L -2.70430e+00  1.60025e+00  2.76880e+00
       L -9.85981e-01  2.97246e-01 -3.51169e+00
6
# CELL(abcABC):  459.05226   459.05226   459.05226    90.00000    90.00000    90.00000  Step:          27  Bead:       0 x_centroid{angstrom}  cell{atomic_unit}
       C -4.55922e-01 -1.52050e-01  1.49216e-01
       O  8.16729e-01  2.81450e-01 -2.25161e-01
       H  1.36628e+00  9.74557e-01 -7.40606e-01
       H -6.05666e-02 -9.62625e-01  7.17704e-01
       L -2.63280e+00  1.54491e+00  2.84967e+00
       L -9.40882e-01  6.81913e-02 -3.31622e+00
6
# CELL(abcABC):  459.05226   459.05226   459.05226    90.00000    90.00000    90.00000  Step:          28  Bead:       0 x_centroid{angstrom}  cell{atomic_unit}
       C -4.59824e-01 -1.51658e-01  1.50288e-01
       O  8.17355e-01  2.83932e-01 -2.27481e-01
       H  1.37384e+00  9.25611e-01 -7.06878e-01
       H -3.16499e-02 -9.57627e-01  7.07867e-01
       L -2.54009e+00  1.45575e+00  2.92427e+00
       L -8.86420e-01 -8.71717e-02 -3.09124e+00
6
# CELL(abcABC):  459.05226   459.05226   459.05226    90.00000    90.00000    90.00000  Step:          29  Bead:       0 x_centroid{angstrom}  cell{atomic_unit}
       C -4.62931e-01 -1.50861e-01  1.50457e-01
       O  8.17848e-01  2.86230e-01 -2.29319e-01
       H  1.37475e+00  8.77392e-01 -6.73202e-01
       H -3.41859e-03 -9.55265e-01  7.01268e-01
       L -2.45250e+00  1.37703e+00  2.93653e+00
       L -8.44112e-01 -1.91968e-01 -2.95163e+00
6
# CELL(abcABC):  459.05226   459.05226   459.05226    90.00000    90.00000    90.00000  Step:          30  Bead:       0 x_centroid{angstrom}  cell{atomic_unit}
       C -4.65520e-01 -1.49882e-01  1.50620e-01
       O  8.18330e-01  2.88244e-01 -2.31053e-01
       H  1.37201e+00  8.34073e-01 -6.43054e-01
       H  2.24160e-02 -9.55481e-01  6.96599e-01
       L -2.31448e+00  1.24287e+00  3.00037e+00
       L -8.08145e-01 -2.47386e-01 -2.80750e+00
6
# CELL(abcABC):  459.05226   459.05226   459.05226    90.00000    90.00000    90.00000  Step:          31  Bead:       0 x_centroid{angstrom}  cell{atomic_unit}
       C -4.67202e-01 -1.48398e-01  1.50478e-01
       O  8.18180e-01  2.89393e-01 -2.32297e-01
       H  1.37189e+00  8.01042e-01 -6.19922e-01
       H  4.47967e-02 -9.58280e-01  6.94754e-01
       L -2.12335e+00  1.06669e+00  3.04392e+00
       L -7.20393e-01 -2.60448e-01 -2.59793e+00
6
# CELL(abcABC):  459.05226   459.05226   459.05226    90.00000    90.00000    90.00000  Step:          32  Bead:       0 x_centroid{angstrom}  cell{atomic_unit}
       C -4.68161e-01 -1.46751e-01  1.50198e-01
       O  8.17269e-01  2.89579e-01 -2.32742e-01
       H  1.38035e+00  7.82893e-01 -6.07700e-01
       H  6.20600e-02 -9.62592e-01  6.92796e-01
       L -1.93739e+00  8.69386e-01  3.05413e+00
       L -6.00255e-01 -2.68461e-01 -2.33992e+00
6
# CELL(abcABC):  459.05226   459.05226   459.05226    90.00000    90.00000    90.00000  Step:          33  Bead:       0 x_centroid{angstrom}  cell{atomic_unit}
       C -4.67889e-01 -1.45086e-01  1.49649e-01
       O  8.14958e-01  2.88805e-01 -2.32265e-01
       H  1.39940e+00  7.80861e-01 -6.07252e-01
       H  7.62708e-02 -9.68037e-01  6.91227e-01
       L -1.71332e+00  7.44252e-01  2.98477e+00
       L -4.84700e-01 -2.92633e-01 -2.11016e+00
6
# CELL(abcABC):  459.05226   459.05226   459.05226    90.00000    90.00000    90.00000  Step:          34  Bead:       0 x_centroid{angstrom}  cell{atomic_unit}
       C -4.66635e-01 -1.43288e-01  1.48927e-01
       O  8.11792e-01  2.87162e-01 -2.31084e-01
       H  1.42635e+00  7.92018e-01 -6.16974e-01
       H  8.44292e-02 -9.74467e-01  6.90729e-01
       L -1.43124e+00  6.13635e-01  2.89557e+00
       L -3.83591e-01 -2.82342e-01 -1.88088e+00
6
# CELL(abcABC):  459.05226   459.05226   459.05226    90.00000    90.00000    90.00000  Step:          35  Bead:       0 x_centroid{angstrom}  cell{atomic_unit}
       C -4.64302e-01 -1.41275e-01  1.48115e-01
       O  8.08021e-01  2.84704e-01 -2.29565e-01
       H  1.45701e+00  8.14407e-01 -6.32763e-01
       H  8.56521e-02 -9.81785e-01  6.91972e-01
       L -1.19952e+00  4.82658e-01  2.79973e+00
       L -3.08328e-01 -2.25035e-01 -1.59396e+00
6
# CELL(abcABC):  459.05226   459.05226   459.05226    90.00000    90.00000    90.00000  Step:          36  Bead:       0 x_centroid{angstrom}  cell{atomic_unit}
       C -4.60457e-01 -1.39383e-01  1.47194e-01
       O  8.03577e-01  2.81980e-01 -2.27691e-01
       H  1.48600e+00  8.41471e-01 -6.52638e-01
       H  8.12580e-02 -9.88131e-01  6.92985e-01
       L -9.66995e-01  3.09937e-01  2.69162e+00
       L -2.69818e-01 -9.88327e-02 -1.30470e+00
6
# CELL(abcABC):  459.05226   459.05226   459.05226    90.00000    90.00000    90.00000  Step:          37  Bead:       0 x_centroid{angstrom}  cell{atomic_unit}
       C -4.55190e-01 -1.37237e-01  1.46095e-01
       O  7.98935e-01  2.79094e-01 -2.25631e-01
       H  1.50775e+00  8.68197e-01 -6.72929e-01
       H  7.02450e-02 -9.94591e-01  6.93569e-01
       L -7.03184e-01  1.55781e-01  2.57011e+00
       L -2.08869e-01 -3.11422e-03 -9.81405e-01
6
# CELL(abcABC):  459.05226   459.05226   459.05226    90.00000    90.00000    90.00000  Step:          38  Bead:       0 x_centroid{angstrom}  cell{atomic_unit}
       C -4.49332e-01 -1.35057e-01  1.45047e-01
       O  7.94867e-01  2.76251e-01 -2.23736e-01
       H  1.51932e+00  8.93056e-01 -6.90344e-01
       H  5.32345e-02 -1.00023e+00  6.93281e-01
       L -4.15543e-01 -2.92053e-02  2.41716e+00
       L -1.31966e-01  4.11692e-02 -6.43007e-01
6
# CELL(abcABC):  459.05226   459.05226   459.05226    90.00000    90.00000    90.00000  Step:          39  Bead:       0 x_centroid{angstrom}  cell{atomic_unit}
       C -4.42436e-01 -1.32682e-01  1.43666e-01
       O  7.91066e-01  2.73519e-01 -2.21886e-01
       H  1.51896e+00  9.13834e-01 -7.03234e-01
       H  3.15876e-02 -1.00587e+00  6.93136e-01
       L -1.77168e-01 -1.60508e-01  2.26571e+00
       L -4.52428e-02  3.62271e-02 -2.76907e-01
6
# CELL(abcABC):  459.05226   459.05226   459.05226    90.00000    90.00000    90.00000  Step:          40  Bead:       0 x_centroid{angstrom}  cell{atomic_unit}
       C -4.34874e-01 -1.30089e-01  1.42226e-01
       O  7.87846e-01  2.70830e-01 -2.20255e-01
       H  1.50507e+00  9.30844e-01 -7.11882e-01
       H  6.28853e-03 -1.01101e+00  6.92968e-01
       L  9.69314e-02 -2.56910e-01  2.10756e+00
       L  2.85920e-02  2.60589e-03  5.34645e-02
6
# CELL(abcABC):  459.05226   459.05226   459.05226    90.00000    90.00000    90.00000  Step:          41  Bead:       0 x_centroid{angstrom}  cell{atomic_unit}
       C -4.26862e-01 -1.27423e-01  1.40795e-01
       O  7.85380e-01  2.68420e-01 -2.18820e-01
       H  1.47818e+00  9.42042e-01 -7.17420e-01
       H -2.33377e-02 -1.01565e+00  6.92713e-01
       L  3.91637e-01 -3.42910e-01  1.90628e+00
       L  8.90826e-02 -5.08763e-02  3.94017e-01
6
# CELL(abcABC):  459.05226   459.05226   459.05226    90.00000    90.00000    90.00000  Step:          42  Bead:       0 x_centroid{angstrom}  cell{atomic_unit}
       C -4.18643e-01 -1.24516e-01  1.38887e-01
       O  7.83658e-01  2.66101e-01 -2.17249e-01
       H  1.44063e+00  9.48105e-01 -7.19032e-01
       H -5.66081e-02 -1.01948e+00  6.92015e-01
       L  7.02176e-01 -3.62005e-01  1.67311e+00
       L  1.48994e-01 -1.43108e-01  8.00815e-01
6
# CELL(abcABC):  459.05226   459.05226   459.05226    90.00000    90.00000    90.00000  Step:          43  Bead:       0 x_centroid{angstrom}  cell{atomic_unit}
       C -4.10204e-01 -1.21226e-01  1.36847e-01
       O  7.82639e-01  2.63792e-01 -2.15868e-01
       H  1.39114e+00  9.49049e-01 -7.16427e-01
       H -9.16652e-02 -1.02292e+00  6.91690e-01
       L  9.58014e-01 -3.91975e-01  1.44956e+00
       L  2.14203e-01 -2.27915e-01  1.24227e+00
6
# CELL(abcABC):  459.05226   459.05226   459.05226    90.00000    90.00000    90.00000  Step:          44  Bead:       0 x_centroid{angstrom}  cell{atomic_unit}
       C -4.01516e-01 -1.17891e-01  1.34657e-01
       O  7.82089e-01  2.61745e-01 -2.14780e-01
       H  1.33166e+00  9.45466e-01 -7.08516e-01
       H -1.27110e-01 -1.02655e+00  6.92464e-01
       L  1.17838e+00 -3.70571e-01  1.24944e+00
       L  2.31481e-01 -3.06292e-01  1.68125e+00
6
# CELL(abcABC):  459.05226   459.05226   459.05226    90.00000    90.00000    90.00000  Step:          45  Bead:       0 x_centroid{angstrom}  cell{atomic_unit}
       C -3.92785e-01 -1.14343e-01  1.32643e-01
       O  7.81999e-01  2.59736e-01 -2.13998e-01
       H  1.26387e+00  9.39344e-01 -6.99267e-01
       H -1.62013e-01 -1.03080e+00  6.94709e-01
       L  1.39131e+00 -3.61999e-01  1.03009e+00
       L  1.88815e-01 -3.75961e-01  2.08352e+00
6
# CELL(abcABC):  459.05226   459.05226   459.05226    90.00000    90.00000    90.00000  Step:          46  Bead:       0 x_centroid{angstrom}  cell{atomic_unit}
       C -3.84400e-01 -1.10545e-01  1.30581e-01
       O  7.82652e-01  2.57445e-01 -2.13094e-01
       H  1.19025e+00  9.32891e-01 -6.90722e-01
       H -1.98810e-01 -1.03320e+00  6.96306e-01
       L  1.63870e+00 -3.65656e-01  8.05366e-01
       L  1.51987e-01 -4.29644e-01  2.47019e+00
6
# CELL(abcABC):  459.05226   459.05226   459.05226    90.00000    90.00000    90.00000  Step:          47  Bead:       0 x_centroid{angstrom}  cell{atomic_unit}
       C -3.76801e-01 -1.06634e-01  1.28292e-01
       O  7.84014e-01  2.54673e-01 -2.11791e-01
       H  1.11365e+00  9.32520e-01 -6.85768e-01
       H -2.34449e-01 -1.03538e+00  6.97871e-01
       L  1.85724e+00 -3.64330e-01  5.98187e-01
       L  7.05953e-02 -4.99638e-01  2.79816e+00
6
# CELL(abcABC):  459.05226   459.05226   459.05226    90.00000    90.00000    90.00000  Step:          48  Bead:       0 x_centroid{angstrom}  cell{atomic_unit}
       C -3.69498e-01 -1.02419e-01  1.26083e-01
       O  7.85540e-01  2.51072e-01 -2.10071e-01
       H  1.03586e+00  9.41963e-01 -6.87560e-01
       H -2.67982e-01 -1.03786e+00  6.98612e-01
       L  2.06834e+00 -3.99503e-01  4.18380e-01
       L -3.40756e-03 -5.40460e-01  3.09289e+00
6
# CELL(abcABC):  459.05226   459.05226   459.05226    90.00000    90.00000    90.00000  Step:          49  Bead:       0 x_centroid{angstrom}  cell{atomic_unit}
       C -3.62704e-01 -9.77450e-02  1.23535e-01
       O  7.87310e-01  2.46463e-01 -2.07604e-01
       H  9.57670e-01  9.62456e-01 -6.97038e-01
       H -2.98883e-01 -1.04081e+00  6.99278e-01
       L  2.21547e+00 -4.55152e-01  2.02724e-01
       L -8.61149e-02 -6.02827e-01  3.36325e+00
6
# CELL(abcABC):  459.05226   459.05226   459.05226    90.00000    90.00000    90.00000  Step:          50  Bead:       0 x_centroid{angstrom}  cell{atomic_unit}
       C -3.56770e-01 -9.34568e-02  1.21121e-01
       O  7.89633e-01  2.41427e-01 -2.04712e-01
       H  8.78712e-01  9.93249e-01 -7.13012e-01
       H -3.27559e-01 -1.04267e+00  6.98091e-01
       L  2.33104e+00 -4.88267e-01  1.21531e-03
       L -1.00570e-01 -7.52299e-01  3.58373e+00
6
# CELL(abcABC):  459.05226   459.05226   459.05226    90.00000    90.00000    90.00000  Step:          51  Bead:       0 x_centroid{angstrom}  cell{atomic_unit}
       C -3.51573e-01 -8.92863e-02  1.18834e-01
       O  7.92479e-01  2.36059e-01 -2.01686e-01
       H  7.97670e-01  1.03047e+00 -7.32519e-01
       H -3.53647e-01 -1.04433e+00  6.96784e-01
       L  2.41393e+00 -4.81409e-01 -1.75178e-01
       L -1.25141e-01 -8.55390e-01  3.81641e+00
6
# CELL(abcABC):  459.05226   459.05226   459.05226    90.00000    90.00000    90.00000  Step:          52  Bead:       0 x_centroid{angstrom}  cell{atomic_unit}
       C -3.47283e-01 -8.52677e-02  1.17055e-01
       O  7.95939e-01  2.30819e-01 -1.98911e-01
       H  7.17186e-01  1.06649e+00 -7.52511e-01
       H -3.79189e-01 -1.04499e+00  6.93929e-01
       L  2.42825e+00 -4.71159e-01 -3.70435e-01
       L -1.61980e-01 -1.00946e+00  4.02343e+00
6
# CELL(abcABC):  459.05226   459.05226   459.05226    90.00000    90.00000    90.00000  Step:          53  Bead:       0 x_centroid{angstrom}  cell{atomic_unit}
       C -3.43767e-01 -8.15218e-02  1.15308e-01
       O  7.99731e-01  2.26045e-01 -1.96417e-01
       H  6.38095e-01  1.09738e+00 -7.68484e-01
       H -4.02168e-01 -1.04467e+00  6.91147e-01
       L  2.38896e+00 -4.66130e-01 -5.69239e-01
       L -1.89189e-01 -1.11876e+00  4.17859e+00
6
# CELL(abcABC):  459.05226   459.05226   459.05226    90.00000    90.00000    90.00000  Step:          54  Bead:       0 x_centroid{angstrom}  cell{atomic_unit}
       C -3.41343e-01 -7.82400e-02  1.13696e-01
       O  8.03886e-01  2.22153e-01 -1.94410e-01
       H  5.63639e-01  1.11825e+00 -7.78058e-01
       H -4.22507e-01 -1.04283e+00  6.88196e-01
       L  2.30961e+00 -4.77605e-01 -8.44567e-01
       L -1.65444e-01 -1.18287e+00  4.24417e+00
6
# CELL(abcABC):  459.05226   459.05226   459.05226    90.00000    90.00000    90.00000  Step:          55  Bead:       0 x_centroid{angstrom}  cell{atomic_unit}
       C -3.40026e-01 -7.50401e-02  1.12239e-01
       O  8.08236e-01  2.18849e-01 -1.92814e-01
       H  4.95157e-01  1.12999e+00 -7.82108e-01
       H -4.38757e-01 -1.04024e+00  6.84396e-01
       L  2.22725e+00 -4.43346e-01 -1.15515e+00
       L -1.13276e-01 -1.26004e+00  4.34781e+00
6
# CELL(abcABC):  459.05226   459.05226   459.05226    90.00000    90.00000    90.00000  Step:          56  Bead:       0 x_centroid{angstrom}  cell{atomic_unit}
       C -3.39938e-01 -7.25672e-02  1.11291e-01
       O  8.12708e-01  2.16601e-01 -1.92121e-01
       H  4.35354e-01  1.13340e+00 -7.78657e-01
       H -4.50978e-01 -1.03742e+00  6.81352e-01
       L  2.13540e+00 -3.42783e-01 -1.43368e+00
       L -5.32746e-02 -1.36920e+00  4.39134e+00
6
# CELL(abcABC):  459.05226   459.05226   459.05226    90.00000    90.00000    90.00000  Step:          57  Bead:       0 x_centroid{angstrom}  cell{atomic_unit}
       C -3.41044e-01 -7.07908e-02  1.10665e-01
       O  8.17217e-01  2.15216e-01 -1.92125e-01
       H  3.85186e-01  1.12880e+00 -7.67449e-01
       H -4.59190e-01 -1.03200e+00  6.77828e-01
       L  2.05239e+00 -2.30228e-01 -1.68038e+00
       L  1.41780e-02 -1.48168e+00  4.35291e+00
6
# CELL(abcABC):  459.05226   459.05226   459.05226    90.00000    90.00000    90.00000  Step:          58  Bead:       0 x_centroid{angstrom}  cell{atomic_unit}
       C -3.43351e-01 -6.94778e-02  1.10602e-01
       O  8.21869e-01  2.14721e-01 -1.92850e-01
       H  3.44850e-01  1.11491e+00 -7.50983e-01
       H -4.65162e-01 -1.02595e+00  6.73811e-01
       L  1.90742e+00 -9.21118e-03 -1.93454e+00
       L  8.85493e-02 -1.60381e+00  4.25616e+00
6
# CELL(abcABC):  459.05226   459.05226   459.05226    90.00000    90.00000    90.00000  Step:          59  Bead:       0 x_centroid{angstrom}  cell{atomic_unit}
       C -3.46367e-01 -6.85287e-02  1.11130e-01
       O  8.26185e-01  2.15054e-01 -1.94354e-01
       H  3.15695e-01  1.09113e+00 -7.28634e-01
       H -4.68558e-01 -1.01880e+00  6.69289e-01
       L  1.77138e+00  1.97572e-01 -2.19169e+00
       L  1.75939e-01 -1.74346e+00  4.07517e+00
6
# CELL(abcABC):  459.05226   459.05226   459.05226    90.00000    90.00000    90.00000  Step:          60  Bead:       0 x_centroid{angstrom}  cell{atomic_unit}
       C -3.50441e-01 -6.82656e-02  1.11832e-01
       O  8.30323e-01  2.16257e-01 -1.96182e-01
       H  2.98850e-01  1.06120e+00 -7.02762e-01
       H -4.68838e-01 -1.01115e+00  6.64336e-01
       L  1.67160e+00  4.22891e-01 -2.45005e+00
       L  2.58404e-01 -1.87464e+00  3.83612e+00
6
# CELL(abcABC):  459.05226   459.05226   459.05226    90.00000    90.00000    90.00000  Step:          61  Bead:       0 x_centroid{angstrom}  cell{atomic_unit}
       C -3.55493e-01 -6.82976e-02  1.12971e-01
       O  8.34288e-01  2.18173e-01 -1.98502e-01
       H  2.92443e-01  1.02372e+00 -6.73327e-01
       H -4.65177e-01 -1.00376e+00  6.58417e-01
       L  1.60189e+00  6.31040e-01 -2.67899e+00
       L  3.47538e-01 -1.99031e+00  3.59192e+00
6
# CELL(abcABC):  459.05226   459.05226   459.05226    90.00000    90.00000    90.00000  Step:          62  Bead:       0 x_centroid{angstrom}  cell{atomic_unit}
       C -3.61092e-01 -6.81976e-02  1.14204e-01
       O  8.37885e-01  2.20508e-01 -2.01032e-01
       H  2.96758e-01  9.79809e-01 -6.42263e-01
       H -4.59865e-01 -9.98155e-01  6.53075e-01
       L  1.53785e+00  8.12250e-01 -2.90479e+00
       L  4.17152e-01 -2.07210e+00  3.31963e+00
6
# CELL(abcABC):  459.05226   459.05226   459.05226    90.00000    90.00000    90.00000  Step:          63  Bead:       0 x_centroid{angstrom}  cell{atomic_unit}
       C -3.67414e-01 -6.87533e-02  1.15491e-01
       O  8.41324e-01  2.23435e-01 -2.03751e-01
       H  3.10736e-01  9.35532e-01 -6.10801e-01
       H -4.53130e-01 -9.93809e-01  6.49701e-01
       L  1.51554e+00  9.85375e-01 -3.11576e+00
       L  4.76584e-01 -2.07553e+00  3.04505e+00
6
# CELL(abcABC):  459.05226   459.05226   459.05226    90.00000    90.00000    90.00000  Step:          64  Bead:       0 x_centroid{angstrom}  cell{atomic_unit}
       C -3.74272e-01 -6.97528e-02  1.16986e-01
       O  8.44555e-01  2.26637e-01 -2.06496e-01
       H  3.33101e-01  8.95266e-01 -5.82269e-01
       H -4.45078e-01 -9.92538e-01  6.47177e-01
       L  1.53425e+00  1.15431e+00 -3.30111e+00
       L  4.88673e-01 -2.10084e+00  2.77389e+00
6
# CELL(abcABC):  459.05226   459.05226   459.05226    90.00000    90.00000    90.00000  Step:          65  Bead:       0 x_centroid{angstrom}  cell{atomic_unit}
       C -3.81472e-01 -7.10454e-02  1.18802e-01
       O  8.47635e-01  2.29569e-01 -2.09156e-01
       H  3.60713e-01  8.64182e-01 -5.59383e-01
       H -4.35829e-01 -9.92627e-01  6.45125e-01
       L  1.58335e+00  1.26066e+00 -3.46701e+00
       L  5.10543e-01 -2.14484e+00  2.49599e+00
6
# CELL(abcABC):  459.05226   459.05226   459.05226    90.00000    90.00000    90.00000  Step:          66  Bead:       0 x_centroid{angstrom}  cell{atomic_unit}
       C -3.89062e-01 -7.27104e-02  1.21114e-01