6
# CELL(abcABC):  459.05226   459.05226   459.05226    90.00000    90.00000    90.00000  Step:           0  Bead:       0 x_centroid{angstrom}  cell{atomic_unit}
       C -3.39887e-01 -1.13437e-01  8.06659e-02
       O  8.43483e-01  2.62672e-01 -1.81512e-01
       H -7.35799e-02  8.16467e-01 -6.61432e-01
       H -4.30016e-01 -9.65701e-01  7.62278e-01
       L  0.00000e+00  0.00000e+00  0.00000e+00
       L  0.00000e+00  0.00000e+00  0.00000e+00
6
# CELL(abcABC):  459.05226   459.05226   459.05226    90.00000    90.00000    90.00000  Step:           1  Bead:       0 x_centroid{angstrom}  cell{atomic_unit}
       C -3.38366e-01 -1.13702e-01  7.92996e-02
       O  8.42973e-01  2.63238e-01 -1.81302e-01
       H -8.52102e-02  8.05891e-01 -6.55167e-01
       H -4.28087e-01 -9.60849e-01  7.69197e-01
       L -2.59923e-01  2.52726e-02  1.12978e-01
       L -3.35081e-01 -2.38902e-01 -5.48077e-01
6
# CELL(abcABC):  459.05226   459.05226   459.05226    90.00000    90.00000    90.00000  Step:           2  Bead:       0 x_centroid{angstrom}  cell{atomic_unit}
       C -3.36677e-01 -1.13866e-01  7.82951e-02
       O  8.42355e-01  2.63581e-01 -1.81322e-01
       H -9.73857e-02  7.95883e-01 -6.48943e-01
       H -4.25884e-01 -9.54207e-01  7.75532e-01
       L -5.09267e-01  4.59452e-02  1.97993e-01
       L -7.17565e-01 -4.84734e-01 -1.14240e+00
6
# CELL(abcABC):  459.05226   459.05226   459.05226    90.00000    90.00000    90.00000  Step:           3  Bead:       0 x_centroid{angstrom}  cell{atomic_unit}
       C -3.35112e-01 -1.14178e-01  7.74429e-02
       O  8.41929e-01  2.64031e-01 -1.81424e-01
       H -1.11184e-01  7.87053e-01 -6.43805e-01
       H -4.23638e-01 -9.48656e-01  7.82427e-01
       L -7.84013e-01  2.25112e-02  3.06462e-01
       L -1.06030e+00 -7.25103e-01 -1.72313e+00
6
# CELL(abcABC):  459.05226   459.05226   459.05226    90.00000    90.00000    90.00000  Step:           4  Bead:       0 x_centroid{angstrom}  cell{atomic_unit}
       C -3.33533e-01 -1.14339e-01  7.70208e-02
       O  8.41563e-01  2.64314e-01 -1.81721e-01
       H -1.26315e-01  7.79975e-01 -6.39506e-01
       H -4.21186e-01 -9.43980e-01  7.88134e-01
       L -1.05573e+00 -3.75160e-02  3.73234e-01
       L -1.36738e+00 -9.69256e-01 -2.27915e+00
6
# CELL(abcABC):  459.05226   459.05226   459.05226    90.00000    90.00000    90.00000  Step:           5  Bead:       0 x_centroid{angstrom}  cell{atomic_unit}
       C -3.31611e-01 -1.14090e-01  7.66362e-02
       O  8.41330e-01  2.64277e-01 -1.81965e-01
       H -1.46319e-01  7.73908e-01 -6.35579e-01
       H -4.20074e-01 -9.40123e-01  7.92934e-01
       L -1.33928e+00 -1.43645e-01  4.09097e-01
       L -1.66016e+00 -1.19931e+00 -2.79743e+00
6
# CELL(abcABC):  459.05226   459.05226   459.05226    90.00000    90.00000    90.00000  Step:           6  Bead:       0 x_centroid{angstrom}  cell{atomic_unit}
       C -3.29692e-01 -1.13870e-01  7.59447e-02
       O  8.41399e-01  2.64371e-01 -1.81928e-01
       H -1.71092e-01  7.66973e-01 -6.32874e-01
       H -4.18966e-01 -9.37117e-01  7.98069e-01
       L -1.58593e+00 -2.42036e-01  4.60651e-01
       L -1.98938e+00 -1.41483e+00 -3.19479e+00
6
# CELL(abcABC):  459.05226   459.05226   459.05226    90.00000    90.00000    90.00000  Step:           7  Bead:       0 x_centroid{angstrom}  cell{atomic_unit}
       C -3.27459e-01 -1.13903e-01  7.48833e-02
       O  8.41663e-01  2.64566e-01 -1.81560e-01
       H -2.01926e-01  7.60160e-01 -6.31493e-01
       H -4.18651e-01 -9.32820e-01  8.03647e-01
       L -1.78880e+00 -3.97995e-01  5.58794e-01
       L -2.28011e+00 -1.61687e+00 -3.57800e+00
6
# CELL(abcABC):  459.05226   459.05226   459.05226    90.00000    90.00000    90.00000  Step:           8  Bead:       0 x_centroid{angstrom}  cell{atomic_unit}
       C -3.24842e-01 -1.13668e-01  7.37605e-02
       O  8.42170e-01  2.64466e-01 -1.81131e-01
       H -2.40020e-01  7.54434e-01 -6.30932e-01
       H -4.19559e-01 -9.28113e-01  8.09793e-01
       L -2.00173e+00 -4.99363e-01  6.15530e-01
       L -2.51784e+00 -1.87385e+00 -3.89445e+00
6
# CELL(abcABC):  459.05226   459.05226   459.05226    90.00000    90.00000    90.00000  Step:           9  Bead:       0 x_centroid{angstrom}  cell{atomic_unit}
       C -3.21799e-01 -1.13391e-01  7.22750e-02
       O  8.43035e-01  2.64126e-01 -1.80390e-01
       H -2.88003e-01  7.51416e-01 -6.30979e-01
       H -4.21349e-01 -9.22832e-01  8.15875e-01
       L -2.19161e+00 -5.94012e-01  7.15400e-01
       L -2.70172e+00 -2.08647e+00 -4.17959e+00
6
# CELL(abcABC):  459.05226   459.05226   459.05226    90.00000    90.00000    90.00000  Step:          10  Bead:       0 x_centroid{angstrom}  cell{atomic_unit}
       C -3.17974e-01 -1.12723e-01  7.05565e-02
       O  8.44215e-01  2.63358e-01 -1.79274e-01
       H -3.48143e-01  7.49724e-01 -6.32571e-01
       H -4.25356e-01 -9.16767e-01  8.20303e-01
       L -2.32796e+00 -6.78930e-01  8.36709e-01
       L -2.86907e+00 -2.26448e+00 -4.41876e+00
6
# CELL(abcABC):  459.05226   459.05226   459.05226    90.00000    90.00000    90.00000  Step:          11  Bead:       0 x_centroid{angstrom}  cell{atomic_unit}
       C -3.13460e-01 -1.11592e-01  6.86369e-02
       O  8.45735e-01  2.62055e-01 -1.77758e-01
       H -4.19973e-01  7.47182e-01 -6.34708e-01
       H -4.31275e-01 -9.06922e-01  8.21351e-01
       L -2.46152e+00 -7.23009e-01  8.84185e-01
       L -3.03999e+00 -2.39085e+00 -4.66921e+00
6
# CELL(abcABC):  459.05226   459.05226   459.05226    90.00000    90.00000    90.00000  Step:          12  Bead:       0 x_centroid{angstrom}  cell{atomic_unit}
       C -3.07872e-01 -1.09822e-01  6.58763e-02
       O  8.47546e-01  2.60319e-01 -1.75627e-01
       H -5.04622e-01  7.41783e-01 -6.34995e-01
       H -4.41809e-01 -8.94985e-01  8.20787e-01
       L -2.58866e+00 -7.56261e-01  9.55852e-01
       L -3.20479e+00 -2.48909e+00 -4.87230e+00
6
# CELL(abcABC):  459.05226   459.05226   459.05226    90.00000    90.00000    90.00000  Step:          13  Bead:       0 x_centroid{angstrom}  cell{atomic_unit}
       C -3.01352e-01 -1.07237e-01  6.26525e-02
       O  8.49625e-01  2.58162e-01 -1.73243e-01
       H -6.01388e-01  7.32730e-01 -6.33304e-01
       H -4.55618e-01 -8.82483e-01  8.19695e-01
       L -2.66587e+00 -7.65808e-01  1.03119e+00
       L -3.32752e+00 -2.52998e+00 -4.99202e+00
6
# CELL(abcABC):  459.05226   459.05226   459.05226    90.00000    90.00000    90.00000  Step:          14  Bead:       0 x_centroid{angstrom}  cell{atomic_unit}
       C -2.93736e-01 -1.03681e-01  5.88768e-02
       O  8.51763e-01  2.55751e-01 -1.70459e-01
       H -7.08370e-01  7.17215e-01 -6.30135e-01
       H -4.73259e-01 -8.71046e-01  8.17346e-01
       L -2.71974e+00 -7.78929e-01  1.08134e+00
       L -3.40054e+00 -2.53633e+00 -5.08263e+00
6
# CELL(abcABC):  459.05226   459.05226   459.05226    90.00000    90.00000    90.00000  Step:          15  Bead:       0 x_centroid{angstrom}  cell{atomic_unit}
       C -2.85465e-01 -9.90421e-02  5.44389e-02
       O  8.53863e-01  2.52880e-01 -1.67288e-01
       H -8.20741e-01  6.96195e-01 -6.23083e-01
       H -4.92714e-01 -8.59735e-01  8.12811e-01
       L -2.79711e+00 -8.03796e-01  1.18288e+00
       L -3.44415e+00 -2.50909e+00 -5.11717e+00
6
# CELL(abcABC):  459.05226   459.05226   459.05226    90.00000    90.00000    90.00000  Step:          16  Bead:       0 x_centroid{angstrom}  cell{atomic_unit}
       C -2.76857e-01 -9.33139e-02  4.95658e-02
       O  8.56167e-01  2.49554e-01 -1.63989e-01
       H -9.37002e-01  6.68696e-01 -6.10649e-01
       H -5.15626e-01 -8.47716e-01  8.05992e-01
       L -2.80798e+00 -8.10301e-01  1.27749e+00
       L -3.38375e+00 -2.47356e+00 -5.07299e+00
6
# CELL(abcABC):  459.05226   459.05226   459.05226    90.00000    90.00000    90.00000  Step:          17  Bead:       0 x_centroid{angstrom}  cell{atomic_unit}
       C -2.67817e-01 -8.70031e-02  4.39372e-02
       O  8.58371e-01  2.46137e-01 -1.60410e-01
       H -1.05485e+00  6.34134e-01 -5.92947e-01
       H -5.40563e-01 -8.34157e-01  7.98483e-01
       L -2.78471e+00 -8.01302e-01  1.30219e+00
       L -3.26384e+00 -2.40411e+00 -4.97576e+00
6
# CELL(abcABC):  459.05226   459.05226   459.05226    90.00000    90.00000    90.00000  Step:          18  Bead:       0 x_centroid{angstrom}  cell{atomic_unit}
       C -2.59208e-01 -8.00181e-02  3.79629e-02
       O  8.60751e-01  2.42610e-01 -1.56799e-01
       H -1.16953e+00  5.92806e-01 -5.70609e-01
       H -5.66341e-01 -8.20112e-01  7.89898e-01
       L -2.70182e+00 -7.87260e-01  1.33489e+00
       L -3.17221e+00 -2.33592e+00 -4.79616e+00
6
# CELL(abcABC):  459.05226   459.05226   459.05226    90.00000    90.00000    90.00000  Step:          19  Bead:       0 x_centroid{angstrom}  cell{atomic_unit}
       C -2.51394e-01 -7.24560e-02  3.14428e-02
       O  8.63287e-01  2.39030e-01 -1.53076e-01
       H -1.27783e+00  5.44846e-01 -5.43165e-01
       H -5.91556e-01 -8.05490e-01  7.80938e-01
       L -2.61724e+00 -7.83717e-01  1.39554e+00
       L -3.01106e+00 -2.26815e+00 -4.64189e+00
6
# CELL(abcABC):  459.05226   459.05226   459.05226    90.00000    90.00000    90.00000  Step:          20  Bead:       0 x_centroid{angstrom}  cell{atomic_unit}
       C -2.44005e-01 -6.46233e-02  2.47327e-02
       O  8.65600e-01  2.35633e-01 -1.49458e-01
       H -1.37871e+00  4.91489e-01 -5.11116e-01
       H -6.15563e-01 -7.91613e-01  7.71247e-01
       L -2.54463e+00 -7.88533e-01  1.47573e+00
       L -2.82414e+00 -2.12268e+00 -4.39791e+00
6
# CELL(abcABC):  459.05226   459.05226   459.05226    90.00000    90.00000    90.00000  Step:          21  Bead:       0 x_centroid{angstrom}  cell{atomic_unit}
       C -2.37902e-01 -5.67205e-02  1.76273e-02
       O  8.68132e-01  2.32491e-01 -1.45748e-01
       H -1.47017e+00  4.35407e-01 -4.75378e-01
       H -6.37182e-01 -7.79893e-01  7.61086e-01
       L -2.44220e+00 -7.86253e-01  1.55538e+00
       L -2.62287e+00 -2.02306e+00 -4.10025e+00
6
# CELL(abcABC):  459.05226   459.05226   459.05226    90.00000    90.00000    90.00000  Step:          22  Bead:       0 x_centroid{angstrom}  cell{atomic_unit}
       C -2.33017e-01 -4.90164e-02  1.09038e-02
       O  8.70712e-01  2.29566e-01 -1.42332e-01
       H -1.55113e+00  3.77664e-01 -4.38320e-01
       H -6.55613e-01 -7.67565e-01  7.49699e-01
       L -2.26783e+00 -8.21885e-01  1.60363e+00
       L -2.39209e+00 -1.88468e+00 -3.73382e+00
6
# CELL(abcABC):  459.05226   459.05226   459.05226    90.00000    90.00000    90.00000  Step:          23  Bead:       0 x_centroid{angstrom}  cell{atomic_unit}
       C -2.29556e-01 -4.17055e-02  4.61428e-03
       O  8.73452e-01  2.26851e-01 -1.39174e-01
       H -1.62161e+00  3.20413e-01 -4.00740e-01
       H -6.70153e-01 -7.54403e-01  7.36668e-01
       L -2.06901e+00 -9.02590e-01  1.68982e+00
       L -2.07267e+00 -1.69611e+00 -3.35227e+00
6
# CELL(abcABC):  459.05226   459.05226   459.05226    90.00000    90.00000    90.00000  Step:          24  Bead:       0 x_centroid{angstrom}  cell{atomic_unit}
       C -2.28000e-01 -3.44656e-02 -1.33120e-03
       O  8.76744e-01  2.24061e-01 -1.36156e-01
       H -1.68124e+00  2.65115e-01 -3.63817e-01
       H -6.81620e-01 -7.41103e-01  7.22386e-01
       L -1.88461e+00 -1.01956e+00  1.80425e+00
       L -1.70643e+00 -1.53826e+00 -2.91366e+00
6
# CELL(abcABC):  459.05226   459.05226   459.05226    90.00000    90.00000    90.00000  Step:          25  Bead:       0 x_centroid{angstrom}  cell{atomic_unit}
       C -2.28051e-01 -2.78184e-02 -6.84864e-03
       O  8.80248e-01  2.21620e-01 -1.33282e-01
       H -1.72851e+00  2.12335e-01 -3.30464e-01
       H -6.89667e-01 -7.28803e-01  7.08862e-01
       L -1.67436e+00 -1.13152e+00  1.90120e+00
       L -1.36207e+00 -1.39629e+00 -2.46314e+00
6
# CELL(abcABC):  459.05226   459.05226   459.05226    90.00000    90.00000    90.00000  Step:          26  Bead:       0 x_centroid{angstrom}  cell{atomic_unit}
       C -2.29404e-01 -2.17884e-02 -1.16875e-02
       O  8.83768e-01  2.19521e-01 -1.30793e-01
       H -1.76538e+00  1.62885e-01 -2.98832e-01
       H -6.92864e-01 -7.17916e-01  6.95120e-01
       L -1.43620e+00 -1.23727e+00  1.92088e+00
       L -1.00922e+00 -1.24796e+00 -1.99249e+00
6
# CELL(abcABC):  459.05226   459.05226   459.05226    90.00000    90.00000    90.00000  Step:          27  Bead:       0 x_centroid{angstrom}  cell{atomic_unit}
       C -2.32691e-01 -1.65036e-02 -1.59214e-02
       O  8.87732e-01  2.17747e-01 -1.28488e-01
       H -1.79198e+00  1.17678e-01 -2.71734e-01
       H -6.90365e-01 -7.07592e-01  6.81653e-01
       L -1.15423e+00 -1.32216e+00  1.85046e+00
       L -6.76453e-01 -1.03828e+00 -1.48167e+00
6
# CELL(abcABC):  459.05226   459.05226   459.05226    90.00000    90.00000    90.00000  Step:          28  Bead:       0 x_centroid{angstrom}  cell{atomic_unit}
       C -2.37333e-01 -1.18417e-02 -1.92942e-02
       O  8.91810e-01  2.16343e-01 -1.26673e-01
       H -1.80877e+00  7.56869e-02 -2.48856e-01
       H -6.83327e-01 -6.98966e-01  6.69951e-01
       L -8.66090e-01 -1.36407e+00  1.73815e+00
       L -3.31412e-01 -8.24301e-01 -1.00861e+00
6
# CELL(abcABC):  459.05226   459.05226   459.05226    90.00000    90.00000    90.00000  Step:          29  Bead:       0 x_centroid{angstrom}  cell{atomic_unit}
       C -2.42951e-01 -7.64963e-03 -2.20647e-02
       O  8.95638e-01  2.15242e-01 -1.25126e-01
       H -1.81542e+00  3.81343e-02 -2.30885e-01
       H -6.70811e-01 -6.93993e-01  6.60244e-01
       L -5.81619e-01 -1.36833e+00  1.61623e+00
       L -1.85646e-02 -6.10597e-01 -5.17212e-01
6
# CELL(abcABC):  459.05226   459.05226   459.05226    90.00000    90.00000    90.00000  Step:          30  Bead:       0 x_centroid{angstrom}  cell{atomic_unit}
       C -2.49550e-01 -3.96585e-03 -2.41934e-02
       O  8.99335e-01  2.14435e-01 -1.23968e-01
       H -1.81368e+00  6.70414e-03 -2.17835e-01
       H -6.52934e-01 -6.93781e-01  6.53961e-01
       L -2.87483e-01 -1.36908e+00  1.48487e+00
       L  2.75797e-01 -3.79682e-01 -7.88958e-03
6
# CELL(abcABC):  459.05226   459.05226   459.05226    90.00000    90.00000    90.00000  Step:          31  Bead:       0 x_centroid{angstrom}  cell{atomic_unit}
       C -2.56908e-01 -9.28232e-04 -2.60022e-02
       O  9.02831e-01  2.13921e-01 -1.22954e-01
       H -1.80373e+00 -1.86457e-02 -2.10174e-01
       H -6.31003e-01 -6.96582e-01  6.51562e-01
       L  4.19664e-02 -1.33502e+00  1.36045e+00
       L  5.14345e-01 -1.96105e-01  4.97850e-01
6
# CELL(abcABC):  459.05226   459.05226   459.05226    90.00000    90.00000    90.00000  Step:          32  Bead:       0 x_centroid{angstrom}  cell{atomic_unit}
       C -2.64831e-01  1.57886e-03 -2.72663e-02
       O  9.06079e-01  2.13703e-01 -1.22430e-01
       H -1.78597e+00 -3.77213e-02 -2.07391e-01
       H -6.06201e-01 -7.04042e-01  6.55341e-01
       L  3.51424e-01 -1.31495e+00  1.21695e+00
       L  7.29863e-01 -2.52393e-03  9.79987e-01
6
# CELL(abcABC):  459.05226   459.05226   459.05226    90.00000    90.00000    90.00000  Step:          33  Bead:       0 x_centroid{angstrom}  cell{atomic_unit}
       C -2.73262e-01  3.63297e-03 -2.81248e-02
       O  9.08930e-01  2.13592e-01 -1.22072e-01
       H -1.75944e+00 -4.98351e-02 -2.10437e-01
       H -5.77852e-01 -7.14719e-01  6.62738e-01
       L  6.76276e-01 -1.31448e+00  1.10467e+00
       L  1.02695e+00  1.48612e-01  1.43301e+00
6
# CELL(abcABC):  459.05226   459.05226   459.05226    90.00000    90.00000    90.00000  Step:          34  Bead:       0 x_centroid{angstrom}  cell{atomic_unit}
       C -2.82390e-01  5.20846e-03 -2.84780e-02
       O  9.11452e-01  2.13708e-01 -1.22047e-01
       H -1.72294e+00 -5.52551e-02 -2.18033e-01
       H -5.45950e-01 -7.29961e-01  6.73979e-01
       L  9.91194e-01 -1.33081e+00  1.02963e+00
       L  1.32997e+00  2.45117e-01  1.82252e+00
6
# CELL(abcABC):  459.05226   459.05226   459.05226    90.00000    90.00000    90.00000  Step:          35  Bead:       0 x_centroid{angstrom}  cell{atomic_unit}
       C -2.91783e-01  6.41914e-03 -2.83368e-02
       O  9.13443e-01  2.13996e-01 -1.22453e-01
       H -1.67755e+00 -5.46244e-02 -2.30235e-01
       H -5.11348e-01 -7.49603e-01  6.90755e-01
       L  1.31827e+00 -1.38278e+00  1.01296e+00
       L  1.59449e+00  3.26162e-01  2.18372e+00
6
# CELL(abcABC):  459.05226   459.05226   459.05226    90.00000    90.00000    90.00000  Step:          36  Bead:       0 x_centroid{angstrom}  cell{atomic_unit}
       C -3.01200e-01  6.85122e-03 -2.79622e-02
       O  9.14767e-01  2.14652e-01 -1.23068e-01
       H -1.62272e+00 -4.83353e-02 -2.45850e-01
       H -4.75289e-01 -7.71459e-01  7.11493e-01
       L  1.62945e+00 -1.38709e+00  9.98537e-01
       L  1.84943e+00  3.43904e-01  2.50909e+00
6
# CELL(abcABC):  459.05226   459.05226   459.05226    90.00000    90.00000    90.00000  Step:          37  Bead:       0 x_centroid{angstrom}  cell{atomic_unit}
       C -3.10530e-01  6.19068e-03 -2.67859e-02
       O  9.15343e-01  2.15747e-01 -1.24128e-01
       H -1.55742e+00 -3.54840e-02 -2.66391e-01
       H -4.38821e-01 -7.93824e-01  7.34689e-01
       L  1.96627e+00 -1.39663e+00  9.55558e-01
       L  2.03148e+00  3.44661e-01  2.84359e+00
6
# CELL(abcABC):  459.05226   459.05226   459.05226    90.00000    90.00000    90.00000  Step:          38  Bead:       0 x_centroid{angstrom}  cell{atomic_unit}
       C -3.19475e-01  4.53808e-03 -2.50322e-02
       O  9.15037e-01  2.16939e-01 -1.25369e-01
       H -1.48329e+00 -1.51754e-02 -2.91250e-01
       H -4.01784e-01 -8.13364e-01  7.58190e-01
       L  2.28893e+00 -1.37999e+00  9.60267e-01
       L  2.19633e+00  3.29857e-01  3.12573e+00
6
# CELL(abcABC):  459.05226   459.05226   459.05226    90.00000    90.00000    90.00000  Step:          39  Bead:       0 x_centroid{angstrom}  cell{atomic_unit}
       C -3.27786e-01  1.78010e-03 -2.24145e-02
       O  9.13828e-01  2.18430e-01 -1.26990e-01
       H -1.40205e+00  1.02137e-02 -3.20296e-01
       H -3.65022e-01 -8.29507e-01  7.81602e-01
       L  2.61892e+00 -1.42263e+00  1.03705e+00
       L  2.28729e+00  2.75615e-01  3.37221e+00
6
# CELL(abcABC):  459.05226   459.05226   459.05226    90.00000    90.00000    90.00000  Step:          40  Bead:       0 x_centroid{angstrom}  cell{atomic_unit}
       C -3.35398e-01 -2.10153e-03 -1.88771e-02
       O  9.11969e-01  2.20192e-01 -1.28922e-01
       H -1.31738e+00  4.10910e-02 -3.52781e-01
       H -3.29669e-01 -8.42056e-01  8.02480e-01
       L  2.93611e+00 -1.42016e+00  1.07813e+00
       L  2.32488e+00  1.98062e-01  3.55737e+00
6
# CELL(abcABC):  459.05226   459.05226   459.05226    90.00000    90.00000    90.00000  Step:          41  Bead:       0 x_centroid{angstrom}  cell{atomic_unit}
       C -3.40903e-01 -7.07727e-03 -1.40954e-02
       O  9.08998e-01  2.22216e-01 -1.31224e-01
       H -1.23572e+00  7.61568e-02 -3.91881e-01
       H -2.98751e-01 -8.49934e-01  8.21035e-01
       L  3.21351e+00 -1.38649e+00  1.09851e+00
       L  2.39178e+00  1.34540e-01  3.72702e+00
6
# CELL(abcABC):  459.05226   459.05226   459.05226    90.00000    90.00000    90.00000  Step:          42  Bead:       0 x_centroid{angstrom}  cell{atomic_unit}
       C -3.43772e-01 -1.29873e-02 -7.70407e-03
       O  9.04934e-01  2.24414e-01 -1.34056e-01
       H -1.16359e+00  1.16310e-01 -4.38339e-01
       H -2.72363e-01 -8.54618e-01  8.36226e-01
       L  3.47737e+00 -1.29395e+00  1.04757e+00
       L  2.43196e+00  1.46824e-01  3.90076e+00
6
# CELL(abcABC):  459.05226   459.05226   459.05226    90.00000    90.00000    90.00000  Step:          43  Bead:       0 x_centroid{angstrom}  cell{atomic_unit}
       C -3.43455e-01 -2.01212e-02  3.10780e-04
       O  8.99872e-01  2.26809e-01 -1.37148e-01
       H -1.10818e+00  1.62149e-01 -4.95393e-01
       H -2.51309e-01 -8.53489e-01  8.46830e-01
       L  3.69475e+00 -1.24180e+00  9.51635e-01
       L  2.45262e+00  1.49157e-01  4.04677e+00
6
# CELL(abcABC):  459.05226   459.05226   459.05226    90.00000    90.00000    90.00000  Step:          44  Bead:       0 x_centroid{angstrom}  cell{atomic_unit}
       C -3.40040e-01 -2.82198e-02  9.78474e-03
       O  8.93927e-01  2.29260e-01 -1.40221e-01
       H -1.06976e+00  2.14178e-01 -5.65344e-01
       H -2.36204e-01 -8.47941e-01  8.52637e-01
       L  3.93522e+00 -1.20696e+00  8.85750e-01
       L  2.46609e+00  1.52814e-01  4.14408e+00
6
# CELL(abcABC):  459.05226   459.05226   459.05226    90.00000    90.00000    90.00000  Step:          45  Bead:       0 x_centroid{angstrom}  cell{atomic_unit}
       C -3.33898e-01 -3.67312e-02  2.04745e-02
       O  8.87140e-01  2.31414e-01 -1.43389e-01
       H -1.04416e+00  2.70970e-01 -6.44256e-01
       H -2.27311e-01 -8.37518e-01  8.54519e-01
       L  4.07944e+00 -1.18451e+00  7.51973e-01
       L  2.39418e+00  1.46220e-01  4.18863e+00
6
# CELL(abcABC):  459.05226   459.05226   459.05226    90.00000    90.00000    90.00000  Step:          46  Bead:       0 x_centroid{angstrom}  cell{atomic_unit}
       C -3.25956e-01 -4.58381e-02  3.17481e-02
       O  8.79864e-01  2.33712e-01 -1.46626e-01
       H -1.02483e+00  3.29146e-01 -7.25620e-01
       H -2.25783e-01 -8.23628e-01  8.52993e-01
       L  4.17207e+00 -1.18595e+00  6.15831e-01
       L  2.29715e+00  1.07239e-01  4.18643e+00
6
# CELL(abcABC):  459.05226   459.05226   459.05226    90.00000    90.00000    90.00000  Step:          47  Bead:       0 x_centroid{angstrom}  cell{atomic_unit}
       C -3.16605e-01 -5.55161e-02  4.25634e-02
       O  8.72082e-01  2.36324e-01 -1.49688e-01
       H -1.00761e+00  3.86257e-01 -8.02473e-01
       H -2.30864e-01 -8.06861e-01  8.49709e-01
       L  4.19075e+00 -1.16144e+00  4.62166e-01
       L  2.22777e+00  7.34184e-02  4.10473e+00
6
# CELL(abcABC):  459.05226   459.05226   459.05226    90.00000    90.00000    90.00000  Step:          48  Bead:       0 x_centroid{angstrom}  cell{atomic_unit}
       C -3.06071e-01 -6.51013e-02  5.26076e-02
       O  8.63822e-01  2.39106e-01 -1.52626e-01
       H -9.89569e-01  4.39366e-01 -8.71916e-01
       H -2.43241e-01 -7.89934e-01  8.46257e-01
       L  4.15336e+00 -1.11785e+00  2.81612e-01
       L  2.12562e+00  4.75103e-02  3.99062e+00
6
# CELL(abcABC):  459.05226   459.05226   459.05226    90.00000    90.00000    90.00000  Step:          49  Bead:       0 x_centroid{angstrom}  cell{atomic_unit}
       C -2.94513e-01 -7.40410e-02  6.18407e-02
       O  8.55077e-01  2.41815e-01 -1.55471e-01
       H -9.69572e-01  4.87389e-01 -9.33338e-01
       H -2.62057e-01 -7.74446e-01  8.42996e-01
       L  4.05208e+00 -1.02653e+00  1.34987e-01
       L  2.04197e+00  6.63311e-03  3.81205e+00
6
# CELL(abcABC):  459.05226   459.05226   459.05226    90.00000    90.00000    90.00000  Step:          50  Bead:       0 x_centroid{angstrom}  cell{atomic_unit}
       C -2.81871e-01 -8.21007e-02  6.97128e-02
       O  8.45848e-01  2.44407e-01 -1.58238e-01
       H -9.48656e-01  5.29539e-01 -9.82636e-01
       H -2.86999e-01 -7.61768e-01  8.42603e-01
       L  3.93152e+00 -8.99446e-01  6.82597e-03
       L  1.94865e+00 -8.49969e-03  3.59068e+00
6
# CELL(abcABC):  459.05226   459.05226   459.05226    90.00000    90.00000    90.00000  Step:          51  Bead:       0 x_centroid{angstrom}  cell{atomic_unit}
       C -2.68621e-01 -8.95712e-02  7.65469e-02
       O  8.36555e-01  2.47289e-01 -1.61245e-01
       H -9.27227e-01  5.64605e-01 -1.02040e+00
       H -3.18652e-01 -7.53614e-01  8.46877e-01
       L  3.79672e+00 -7.64679e-01 -1.00091e-01
       L  1.80387e+00 -4.09353e-02  3.29736e+00
6
# CELL(abcABC):  459.05226   459.05226   459.05226    90.00000    90.00000    90.00000  Step:          52  Bead:       0 x_centroid{angstrom}  cell{atomic_unit}
       C -2.55328e-01 -9.57378e-02  8.18485e-02
       O  8.27652e-01  2.49921e-01 -1.63976e-01
       H -9.06986e-01  5.92610e-01 -1.04764e+00
       H -3.55868e-01 -7.49982e-01  8.54518e-01
       L  3.68756e+00 -6.04831e-01 -1.97066e-01
       L  1.70244e+00 -8.82545e-02  2.97517e+00
6
# CELL(abcABC):  459.05226   459.05226   459.05226    90.00000    90.00000    90.00000  Step:          53  Bead:       0 x_centroid{angstrom}  cell{atomic_unit}
       C -2.42081e-01 -1.00929e-01  8.56255e-02
       O  8.19202e-01  2.52502e-01 -1.66523e-01
       H -8.87961e-01  6.14649e-01 -1.06482e+00
       H -3.98455e-01 -7.51180e-01  8.67317e-01
       L  3.53640e+00 -5.00573e-01 -2.46442e-01
       L  1.56930e+00 -9.65721e-02  2.64877e+00
6
# CELL(abcABC):  459.05226   459.05226   459.05226    90.00000    90.00000    90.00000  Step:          54  Bead:       0 x_centroid{angstrom}  cell{atomic_unit}
       C -2.29292e-01 -1.05151e-01  8.79689e-02
       O  8.11534e-01  2.55071e-01 -1.68900e-01
       H -8.71724e-01  6.28949e-01 -1.07228e+00
       H -4.45179e-01 -7.55995e-01  8.84790e-01
       L  3.35677e+00 -3.89339e-01 -2.85724e-01
       L  1.40523e+00 -1.09006e-01  2.32108e+00
6
# CELL(abcABC):  459.05226   459.05226   459.05226    90.00000    90.00000    90.00000  Step:          55  Bead:       0 x_centroid{angstrom}  cell{atomic_unit}
       C -2.17812e-01 -1.08886e-01  8.91036e-02
       O  8.05290e-01  2.57784e-01 -1.70956e-01
       H -8.57503e-01  6.36788e-01 -1.07034e+00
       H -4.96886e-01 -7.62462e-01  9.02171e-01
       L  3.11958e+00 -2.61449e-01 -2.85087e-01
       L  1.27184e+00 -1.17826e-01  1.94837e+00
6
# CELL(abcABC):  459.05226   459.05226   459.05226    90.00000    90.00000    90.00000  Step:          56  Bead:       0 x_centroid{angstrom}  cell{atomic_unit}
       C -2.07669e-01 -1.12292e-01  8.91769e-02
       O  8.00212e-01  2.60801e-01 -1.72856e-01
       H -8.44462e-01  6.36799e-01 -1.05963e+00
       H -5.49949e-01 -7.69866e-01  9.20982e-01
       L  2.85627e+00 -1.44554e-01 -2.74067e-01
       L  1.11257e+00 -9.05351e-02  1.50394e+00
6
# CELL(abcABC):  459.05226   459.05226   459.05226    90.00000    90.00000    90.00000  Step:          57  Bead:       0 x_centroid{angstrom}  cell{atomic_unit}
       C -1.99116e-01 -1.15720e-01  8.86117e-02
       O  7.96589e-01  2.64059e-01 -1.74610e-01
       H -8.34304e-01  6.30526e-01 -1.04042e+00
       H -6.04279e-01 -7.74482e-01  9.36550e-01
       L  2.54902e+00 -8.64468e-02 -2.21856e-01
       L  9.77218e-01 -1.08519e-01  1.08969e+00
6
# CELL(abcABC):  459.05226   459.05226   459.05226    90.00000    90.00000    90.00000  Step:          58  Bead:       0 x_centroid{angstrom}  cell{atomic_unit}
       C -1.92696e-01 -1.18959e-01  8.76870e-02
       O  7.94864e-01  2.67531e-01 -1.76390e-01
       H -8.28146e-01  6.17673e-01 -1.01243e+00
       H -6.59253e-01 -7.78196e-01  9.48022e-01
       L  2.18339e+00  2.30590e-02 -1.62750e-01
       L  7.79675e-01 -1.01246e-01  6.85417e-01
6
# CELL(abcABC):  459.05226   459.05226   459.05226    90.00000    90.00000    90.00000  Step:          59  Bead:       0 x_centroid{angstrom}  cell{atomic_unit}
       C -1.88981e-01 -1.22305e-01  8.64472e-02
       O  7.95195e-01  2.71283e-01 -1.78083e-01
       H -8.25745e-01  5.96575e-01 -9.76458e-01
       H -7.10846e-01 -7.76855e-01  9.53919e-01
       L  1.78749e+00  1.41949e-01 -8.98468e-02
       L  5.47969e-01 -1.03393e-01  2.02281e-01
6
# CELL(abcABC):  459.05226   459.05226   459.05226    90.00000    90.00000    90.00000  Step:          60  Bead:       0 x_centroid{angstrom}  cell{atomic_unit}
       C -1.87893e-01 -1.25317e-01  8.47971e-02
       O  7.97388e-01  2.75091e-01 -1.79786e-01
       H -8.26115e-01  5.68354e-01 -9.31535e-01
       H -7.57889e-01 -7.73204e-01  9.55940e-01
       L  1.35447e+00  1.54275e-01 -3.18244e-02
       L  3.38708e-01 -9.95457e-02 -3.20794e-01
6
# CELL(abcABC):  459.05226   459.05226   459.05226    90.00000    90.00000    90.00000  Step:          61  Bead:       0 x_centroid{angstrom}  cell{atomic_unit}
       C -1.89510e-01 -1.28251e-01  8.28353e-02
       O  8.01501e-01  2.79054e-01 -1.81451e-01
       H -8.29135e-01  5.33174e-01 -8.78304e-01
       H -8.00507e-01 -7.65909e-01  9.52767e-01
       L  8.93692e-01  1.55803e-01  2.51242e-02
       L  1.13817e-01 -1.76071e-01 -8.35930e-01
6
# CELL(abcABC):  459.05226   459.05226   459.05226    90.00000    90.00000    90.00000  Step:          62  Bead:       0 x_centroid{angstrom}  cell{atomic_unit}
       C -1.93596e-01 -1.30959e-01  8.06783e-02
       O  8.07369e-01  2.83040e-01 -1.83056e-01
       H -8.36692e-01  4.91078e-01 -8.19204e-01
       H -8.37045e-01 -7.54790e-01  9.45123e-01
       L  4.75158e-01  1.67429e-01  3.29757e-02
       L -1.58091e-01 -2.34146e-01 -1.36506e+00
6
# CELL(abcABC):  459.05226   459.05226   459.05226    90.00000    90.00000    90.00000  Step:          63  Bead:       0 x_centroid{angstrom}  cell{atomic_unit}
       C -1.99658e-01 -1.33762e-01  7.79595e-02
       O  8.14525e-01  2.87259e-01 -1.84316e-01
       H -8.47950e-01  4.43469e-01 -7.53225e-01
       H -8.66764e-01 -7.40740e-01  9.31831e-01
       L  5.58211e-02  1.33982e-01  1.62687e-02
       L -4.31086e-01 -2.24870e-01 -1.86491e+00
6
# CELL(abcABC):  459.05226   459.05226   459.05226    90.00000    90.00000    90.00000  Step:          64  Bead:       0 x_centroid{angstrom}  cell{atomic_unit}
       C -2.07846e-01 -1.36379e-01  7.48293e-02
       O  8.23047e-01  2.91475e-01 -1.85249e-01
       H -8.62866e-01  3.91209e-01 -6.82703e-01
       H -8.89146e-01 -7.24216e-01  9.13729e-01
       L -3.71243e-01  1.32066e-01 -5.41350e-02
       L -7.19841e-01 -2.31001e-01 -2.37434e+00
6
# CELL(abcABC):  459.05226   459.05226   459.05226    90.00000    90.00000    90.00000  Step:          65  Bead:       0 x_centroid{angstrom}  cell{atomic_unit}
       C -2.17380e-01 -1.38842e-01  7.16874e-02
       O  8.32256e-01  2.95774e-01 -1.86116e-01
       H -8.81270e-01  3.34731e-01 -6.08088e-01
       H -9.02949e-01 -7.06576e-01  8.90620e-01
       L -7.73368e-01  3.92228e-02 -1.26834e-01
       L -9.87045e-01 -2.51169e-01 -2.85906e+00
6
# CELL(abcABC):  459.05226   459.05226   459.05226    90.00000    90.00000    90.00000  Step:          66  Bead:       0 x_centroid{angstrom}  cell{atomic_unit}
       C -2.27891e-01 -1.41192e-01  6.85842e-02