6
# CELL(abcABC):  459.05226   459.05226   459.05226    90.00000    90.00000    90.00000  Step:           0  Bead:       0 x_centroid{angstrom}  cell{atomic_unit}
       C -3.39887e-01 -1.13437e-01  8.06659e-02
       O  8.43483e-01  2.62672e-01 -1.81512e-01
       H -7.35799e-02  8.16467e-01 -6.61432e-01
       H -4.30016e-01 -9.65701e-01  7.62278e-01
       L  0.00000e+00  0.00000e+00  0.00000e+00
       L  0.00000e+00  0.00000e+00  0.00000e+00
6
# CELL(abcABC):  459.05226   459.05226   459.05226    90.00000    90.00000    90.00000  Step:           1  Bead:       0 x_centroid{angstrom}  cell{atomic_unit}
       C -3.35282e-01 -1.13847e-01  8.02345e-02
       O  8.39854e-01  2.62450e-01 -1.81325e-01
       H -7.99590e-02  8.19604e-01 -6.56507e-01
       H -4.20648e-01 -9.60663e-01  7.59219e-01
       L -3.00606e-01  3.10991e-01  1.72435e-01
       L -1.60270e-01  1.09589e-01  3.66419e-01
6
# CELL(abcABC):  459.05226   459.05226   459.05226    90.00000    90.00000    90.00000  Step:           2  Bead:       0 x_centroid{angstrom}  cell{atomic_unit}
       C -3.30765e-01 -1.14408e-01  7.97103e-02
       O  8.36334e-01  2.62348e-01 -1.81061e-01
       H -8.74717e-02  8.22456e-01 -6.52054e-01
       H -4.10815e-01 -9.55426e-01  7.56512e-01
       L -6.80435e-01  6.52479e-01  3.42878e-01
       L -2.73716e-01  1.51774e-01  7.77786e-01
6
# CELL(abcABC):  459.05226   459.05226   459.05226    90.00000    90.00000    90.00000  Step:           3  Bead:       0 x_centroid{angstrom}  cell{atomic_unit}
       C -3.26302e-01 -1.15127e-01  7.93154e-02
       O  8.32974e-01  2.62329e-01 -1.80938e-01
       H -9.61266e-02  8.25728e-01 -6.47746e-01
       H -4.01820e-01 -9.50013e-01  7.54677e-01
       L -9.72233e-01  9.70236e-01  4.55883e-01
       L -3.47054e-01  1.70086e-01  1.17656e+00
6
# CELL(abcABC):  459.05226   459.05226   459.05226    90.00000    90.00000    90.00000  Step:           4  Bead:       0 x_centroid{angstrom}  cell{atomic_unit}
       C -3.22463e-01 -1.15764e-01  7.89877e-02
       O  8.30071e-01  2.62252e-01 -1.80903e-01
       H -1.04488e-01  8.28604e-01 -6.43888e-01
       H -3.92927e-01 -9.44238e-01  7.53869e-01
       L -1.27397e+00  1.28580e+00  5.65114e-01
       L -3.95590e-01  1.80918e-01  1.61844e+00
6
# CELL(abcABC):  459.05226   459.05226   459.05226    90.00000    90.00000    90.00000  Step:           5  Bead:       0 x_centroid{angstrom}  cell{atomic_unit}
       C -3.18883e-01 -1.16474e-01  7.84600e-02
       O  8.27459e-01  2.62345e-01 -1.80745e-01
       H -1.14922e-01  8.31040e-01 -6.40104e-01
       H -3.83549e-01 -9.39902e-01  7.53604e-01
       L -1.53977e+00  1.58287e+00  6.21316e-01
       L -3.83256e-01  2.33105e-01  2.03539e+00
6
# CELL(abcABC):  459.05226   459.05226   459.05226    90.00000    90.00000    90.00000  Step:           6  Bead:       0 x_centroid{angstrom}  cell{atomic_unit}
       C -3.15610e-01 -1.17087e-01  7.73737e-02
       O  8.25272e-01  2.62428e-01 -1.80261e-01
       H -1.27702e-01  8.33426e-01 -6.36294e-01
       H -3.74942e-01 -9.36480e-01  7.54813e-01
       L -1.78482e+00  1.90642e+00  6.48776e-01
       L -3.39120e-01  2.42277e-01  2.47461e+00
6
# CELL(abcABC):  459.05226   459.05226   459.05226    90.00000    90.00000    90.00000  Step:           7  Bead:       0 x_centroid{angstrom}  cell{atomic_unit}
       C -3.12175e-01 -1.17302e-01  7.59164e-02
       O  8.23464e-01  2.62352e-01 -1.79608e-01
       H -1.45308e-01  8.34765e-01 -6.32595e-01
       H -3.69481e-01 -9.34226e-01  7.57828e-01
       L -1.97905e+00  2.21092e+00  7.07581e-01
       L -3.31495e-01  2.61854e-01  2.92494e+00
6
# CELL(abcABC):  459.05226   459.05226   459.05226    90.00000    90.00000    90.00000  Step:           8  Bead:       0 x_centroid{angstrom}  cell{atomic_unit}
       C -3.09102e-01 -1.17427e-01  7.45449e-02
       O  8.22253e-01  2.62361e-01 -1.78979e-01
       H -1.67881e-01  8.34825e-01 -6.29318e-01
       H -3.64228e-01 -9.33119e-01  7.60635e-01
       L -2.11172e+00  2.57860e+00  7.51736e-01
       L -3.31759e-01  2.45231e-01  3.37518e+00
6
# CELL(abcABC):  459.05226   459.05226   459.05226    90.00000    90.00000    90.00000  Step:           9  Bead:       0 x_centroid{angstrom}  cell{atomic_unit}
       C -3.06585e-01 -1.17390e-01  7.29650e-02
       O  8.21858e-01  2.62465e-01 -1.78333e-01
       H -1.95694e-01  8.33537e-01 -6.24914e-01
       H -3.60049e-01 -9.34088e-01  7.64522e-01
       L -2.19679e+00  2.93606e+00  8.24642e-01
       L -4.06671e-01  1.84716e-01  3.82897e+00
6
# CELL(abcABC):  459.05226   459.05226   459.05226    90.00000    90.00000    90.00000  Step:          10  Bead:       0 x_centroid{angstrom}  cell{atomic_unit}
       C -3.04491e-01 -1.17162e-01  7.12970e-02
       O  8.22390e-01  2.62548e-01 -1.77692e-01
       H -2.31052e-01  8.33060e-01 -6.20975e-01
       H -3.58021e-01 -9.37819e-01  7.70050e-01
       L -2.24128e+00  3.29282e+00  8.33039e-01
       L -4.66281e-01  1.30705e-01  4.25617e+00
6
# CELL(abcABC):  459.05226   459.05226   459.05226    90.00000    90.00000    90.00000  Step:          11  Bead:       0 x_centroid{angstrom}  cell{atomic_unit}
       C -3.02714e-01 -1.16745e-01  6.95504e-02
       O  8.23783e-01  2.62569e-01 -1.77035e-01
       H -2.75676e-01  8.31856e-01 -6.16131e-01
       H -3.56648e-01 -9.42123e-01  7.75363e-01
       L -2.27416e+00  3.69815e+00  8.33289e-01
       L -5.13901e-01  1.35409e-01  4.67890e+00
6
# CELL(abcABC):  459.05226   459.05226   459.05226    90.00000    90.00000    90.00000  Step:          12  Bead:       0 x_centroid{angstrom}  cell{atomic_unit}
       C -3.00850e-01 -1.15974e-01  6.73272e-02
       O  8.25967e-01  2.62421e-01 -1.76123e-01
       H -3.31694e-01  8.29339e-01 -6.09733e-01
       H -3.57448e-01 -9.46631e-01  7.80769e-01
       L -2.34687e+00  4.05195e+00  8.40405e-01
       L -5.73513e-01  1.01964e-01  5.03808e+00
6
# CELL(abcABC):  459.05226   459.05226   459.05226    90.00000    90.00000    90.00000  Step:          13  Bead:       0 x_centroid{angstrom}  cell{atomic_unit}
       C -2.98498e-01 -1.14748e-01  6.44693e-02
       O  8.28711e-01  2.62019e-01 -1.74814e-01
       H -3.99919e-01  8.23870e-01 -6.01323e-01
       H -3.60748e-01 -9.49557e-01  7.85436e-01
       L -2.40672e+00  4.38466e+00  8.65915e-01
       L -6.04035e-01  9.37879e-02  5.39009e+00
6
# CELL(abcABC):  459.05226   459.05226   459.05226    90.00000    90.00000    90.00000  Step:          14  Bead:       0 x_centroid{angstrom}  cell{atomic_unit}
       C -2.95763e-01 -1.13043e-01  6.12592e-02
       O  8.32129e-01  2.61410e-01 -1.73377e-01
       H -4.79831e-01  8.15117e-01 -5.90183e-01
       H -3.67646e-01 -9.51584e-01  7.89525e-01
       L -2.44249e+00  4.63293e+00  9.29945e-01
       L -6.49574e-01  6.19060e-02  5.73035e+00
6
# CELL(abcABC):  459.05226   459.05226   459.05226    90.00000    90.00000    90.00000  Step:          15  Bead:       0 x_centroid{angstrom}  cell{atomic_unit}
       C -2.92357e-01 -1.10536e-01  5.79193e-02
       O  8.36059e-01  2.60402e-01 -1.71840e-01
       H -5.71886e-01  8.01274e-01 -5.76063e-01
       H -3.78530e-01 -9.51701e-01  7.90608e-01
       L -2.48926e+00  4.79493e+00  1.00529e+00
       L -6.57598e-01  7.07015e-02  5.99934e+00
6
# CELL(abcABC):  459.05226   459.05226   459.05226    90.00000    90.00000    90.00000  Step:          16  Bead:       0 x_centroid{angstrom}  cell{atomic_unit}
       C -2.88891e-01 -1.07175e-01  5.42234e-02
       O  8.40882e-01  2.58923e-01 -1.70065e-01
       H -6.75931e-01  7.82308e-01 -5.59299e-01
       H -3.92293e-01 -9.49332e-01  7.89593e-01
       L -2.55706e+00  4.88262e+00  1.06853e+00
       L -6.63425e-01  1.59403e-02  6.17271e+00
6
# CELL(abcABC):  459.05226   459.05226   459.05226    90.00000    90.00000    90.00000  Step:          17  Bead:       0 x_centroid{angstrom}  cell{atomic_unit}
       C -2.84836e-01 -1.03168e-01  5.03851e-02
       O  8.45986e-01  2.57189e-01 -1.68165e-01
       H -7.88839e-01  7.56931e-01 -5.39474e-01
       H -4.08697e-01 -9.44178e-01  7.85218e-01
       L -2.64261e+00  4.95088e+00  1.12059e+00
       L -6.34049e-01 -5.06676e-02  6.34746e+00
6
# CELL(abcABC):  459.05226   459.05226   459.05226    90.00000    90.00000    90.00000  Step:          18  Bead:       0 x_centroid{angstrom}  cell{atomic_unit}
       C -2.79715e-01 -9.82242e-02  4.61226e-02
       O  8.50868e-01  2.55060e-01 -1.65999e-01
       H -9.07691e-01  7.23647e-01 -5.15893e-01
       H -4.28369e-01 -9.35895e-01  7.77954e-01
       L -2.66750e+00  4.92837e+00  1.15872e+00
       L -5.82699e-01 -2.16243e-01  6.46376e+00
6
# CELL(abcABC):  459.05226   459.05226   459.05226    90.00000    90.00000    90.00000  Step:          19  Bead:       0 x_centroid{angstrom}  cell{atomic_unit}
       C -2.74070e-01 -9.28349e-02  4.19157e-02
       O  8.55658e-01  2.52799e-01 -1.64044e-01
       H -1.02843e+00  6.83537e-01 -4.88464e-01
       H -4.50963e-01 -9.24018e-01  7.69559e-01
       L -2.63464e+00  4.92175e+00  1.22034e+00
       L -5.56641e-01 -4.17170e-01  6.54561e+00
6
# CELL(abcABC):  459.05226   459.05226   459.05226    90.00000    90.00000    90.00000  Step:          20  Bead:       0 x_centroid{angstrom}  cell{atomic_unit}
       C -2.68085e-01 -8.69839e-02  3.75815e-02
       O  8.60169e-01  2.50561e-01 -1.62157e-01
       H -1.14676e+00  6.35852e-01 -4.56080e-01
       H -4.75608e-01 -9.10383e-01  7.58808e-01
       L -2.55931e+00  4.83697e+00  1.28024e+00
       L -5.56031e-01 -5.92364e-01  6.57066e+00
6
# CELL(abcABC):  459.05226   459.05226   459.05226    90.00000    90.00000    90.00000  Step:          21  Bead:       0 x_centroid{angstrom}  cell{atomic_unit}
       C -2.62612e-01 -8.05808e-02  3.31652e-02
       O  8.64837e-01  2.48256e-01 -1.60209e-01
       H -1.26064e+00  5.81397e-01 -4.21209e-01
       H -5.01101e-01 -8.95515e-01  7.45629e-01
       L -2.42028e+00  4.70361e+00  1.33763e+00
       L -5.63486e-01 -6.92137e-01  6.53963e+00
6
# CELL(abcABC):  459.05226   459.05226   459.05226    90.00000    90.00000    90.00000  Step:          22  Bead:       0 x_centroid{angstrom}  cell{atomic_unit}
       C -2.57170e-01 -7.38606e-02  2.86608e-02
       O  8.69061e-01  2.46063e-01 -1.58260e-01
       H -1.36581e+00  5.21931e-01 -3.83214e-01
       H -5.27921e-01 -8.81160e-01  7.30451e-01
       L -2.27606e+00  4.50328e+00  1.37878e+00
       L -5.48899e-01 -7.76801e-01  6.35299e+00
6
# CELL(abcABC):  459.05226   459.05226   459.05226    90.00000    90.00000    90.00000  Step:          23  Bead:       0 x_centroid{angstrom}  cell{atomic_unit}
       C -2.52091e-01 -6.67508e-02  2.40500e-02
       O  8.72911e-01  2.43583e-01 -1.56279e-01
       H -1.46165e+00  4.61231e-01 -3.44034e-01
       H -5.53830e-01 -8.65661e-01  7.14894e-01
       L -2.08485e+00  4.30255e+00  1.39900e+00
       L -5.39455e-01 -8.66237e-01  6.11328e+00
6
# CELL(abcABC):  459.05226   459.05226   459.05226    90.00000    90.00000    90.00000  Step:          24  Bead:       0 x_centroid{angstrom}  cell{atomic_unit}
       C -2.47883e-01 -5.93920e-02  1.97511e-02
       O  8.76681e-01  2.41098e-01 -1.54522e-01
       H -1.54709e+00  3.98547e-01 -3.04692e-01
       H -5.78518e-01 -8.51042e-01  6.99077e-01
       L -1.83534e+00  4.08289e+00  1.36834e+00
       L -4.94682e-01 -9.51717e-01  5.78624e+00
6
# CELL(abcABC):  459.05226   459.05226   459.05226    90.00000    90.00000    90.00000  Step:          25  Bead:       0 x_centroid{angstrom}  cell{atomic_unit}
       C -2.44377e-01 -5.17517e-02  1.56632e-02
       O  8.80173e-01  2.38384e-01 -1.52935e-01
       H -1.62185e+00  3.36159e-01 -2.65280e-01
       H -6.01152e-01 -8.36473e-01  6.83390e-01
       L -1.55865e+00  3.85469e+00  1.34952e+00
       L -4.47246e-01 -1.00563e+00  5.44907e+00
6
# CELL(abcABC):  459.05226   459.05226   459.05226    90.00000    90.00000    90.00000  Step:          26  Bead:       0 x_centroid{angstrom}  cell{atomic_unit}
       C -2.41586e-01 -4.41444e-02  1.17263e-02
       O  8.83275e-01  2.35642e-01 -1.51345e-01
       H -1.68578e+00  2.75682e-01 -2.26715e-01
       H -6.19905e-01 -8.22950e-01  6.66756e-01
       L -1.27776e+00  3.61501e+00  1.31149e+00
       L -3.79969e-01 -1.06100e+00  5.00503e+00
6
# CELL(abcABC):  459.05226   459.05226   459.05226    90.00000    90.00000    90.00000  Step:          27  Bead:       0 x_centroid{angstrom}  cell{atomic_unit}
       C -2.39429e-01 -3.70589e-02  8.14131e-03
       O  8.86051e-01  2.33199e-01 -1.49904e-01
       H -1.73980e+00  2.18274e-01 -1.91551e-01
       H -6.35881e-01 -8.11068e-01  6.51718e-01
       L -9.81173e-01  3.41003e+00  1.23385e+00
       L -2.80568e-01 -1.09418e+00  4.55826e+00
6
# CELL(abcABC):  459.05226   459.05226   459.05226    90.00000    90.00000    90.00000  Step:          28  Bead:       0 x_centroid{angstrom}  cell{atomic_unit}
       C -2.38435e-01 -3.02439e-02  4.89105e-03
       O  8.88708e-01  2.30917e-01 -1.48614e-01
       H -1.78303e+00  1.64108e-01 -1.59426e-01
       H -6.46835e-01 -8.01704e-01  6.38140e-01
       L -7.51356e-01  3.14395e+00  1.19501e+00
       L -1.97133e-01 -1.17451e+00  4.04928e+00
6
# CELL(abcABC):  459.05226   459.05226   459.05226    90.00000    90.00000    90.00000  Step:          29  Bead:       0 x_centroid{angstrom}  cell{atomic_unit}
       C -2.38216e-01 -2.37876e-02  2.13033e-03
       O  8.91011e-01  2.28698e-01 -1.47607e-01
       H -1.81647e+00  1.15283e-01 -1.30875e-01
       H -6.52699e-01 -7.94379e-01  6.26868e-01
       L -5.29364e-01  2.85893e+00  1.10415e+00
       L -1.47558e-01 -1.25898e+00  3.47686e+00
6
# CELL(abcABC):  459.05226   459.05226   459.05226    90.00000    90.00000    90.00000  Step:          30  Bead:       0 x_centroid{angstrom}  cell{atomic_unit}
       C -2.38996e-01 -1.79265e-02 -1.52007e-04
       O  8.93244e-01  2.26735e-01 -1.46807e-01
       H -1.84209e+00  7.10759e-02 -1.06249e-01
       H -6.53405e-01 -7.88708e-01  6.17100e-01
       L -2.97948e-01  2.55360e+00  1.02292e+00
       L -7.21592e-02 -1.24112e+00  2.89299e+00
6
# CELL(abcABC):  459.05226   459.05226   459.05226    90.00000    90.00000    90.00000  Step:          31  Bead:       0 x_centroid{angstrom}  cell{atomic_unit}
       C -2.40641e-01 -1.29600e-02 -1.99803e-03
       O  8.95306e-01  2.25248e-01 -1.46250e-01
       H -1.85923e+00  3.28046e-02 -8.53244e-02
       H -6.49592e-01 -7.85861e-01  6.09724e-01
       L -1.66410e-02  2.26084e+00  9.03655e-01
       L  6.98606e-03 -1.21406e+00  2.30801e+00
6
# CELL(abcABC):  459.05226   459.05226   459.05226    90.00000    90.00000    90.00000  Step:          32  Bead:       0 x_centroid{angstrom}  cell{atomic_unit}
       C -2.43277e-01 -8.65791e-03 -3.25058e-03
       O  8.97254e-01  2.23903e-01 -1.46088e-01
       H -1.86904e+00  2.30777e-03 -6.76388e-02
       H -6.39553e-01 -7.85191e-01  6.04801e-01
       L  3.31125e-01  1.99808e+00  7.40878e-01
       L  1.38650e-01 -1.11557e+00  1.69885e+00
6
# CELL(abcABC):  459.05226   459.05226   459.05226    90.00000    90.00000    90.00000  Step:          33  Bead:       0 x_centroid{angstrom}  cell{atomic_unit}
       C -2.46478e-01 -5.12849e-03 -4.13777e-03
       O  8.98877e-01  2.22836e-01 -1.45942e-01
       H -1.87175e+00 -2.09596e-02 -5.66572e-02
       H -6.24691e-01 -7.86903e-01  6.02529e-01
       L  6.27414e-01  1.70052e+00  5.61607e-01
       L  2.77027e-01 -1.08280e+00  1.06836e+00
6
# CELL(abcABC):  459.05226   459.05226   459.05226    90.00000    90.00000    90.00000  Step:          34  Bead:       0 x_centroid{angstrom}  cell{atomic_unit}
       C -2.50364e-01 -2.40601e-03 -4.68770e-03
       O  9.00183e-01  2.22082e-01 -1.45934e-01
       H -1.86710e+00 -3.77137e-02 -5.01396e-02
       H -6.03970e-01 -7.90476e-01  6.02857e-01
       L  9.05232e-01  1.38493e+00  3.69779e-01
       L  3.74387e-01 -1.01760e+00  4.66482e-01
6
# CELL(abcABC):  459.05226   459.05226   459.05226    90.00000    90.00000    90.00000  Step:          35  Bead:       0 x_centroid{angstrom}  cell{atomic_unit}
       C -2.54702e-01 -7.92045e-04 -4.92221e-03
       O  9.00944e-01  2.22036e-01 -1.45983e-01
       H -1.85436e+00 -4.81852e-02 -4.92490e-02
       H -5.77259e-01 -7.98376e-01  6.05932e-01
       L  1.15214e+00  1.07082e+00  2.20302e-01
       L  4.15319e-01 -9.50091e-01 -1.04880e-01
6
# CELL(abcABC):  459.05226   459.05226   459.05226    90.00000    90.00000    90.00000  Step:          36  Bead:       0 x_centroid{angstrom}  cell{atomic_unit}
       C -2.59290e-01 -2.08444e-04 -4.54412e-03
       O  9.01166e-01  2.22586e-01 -1.46294e-01
       H -1.83418e+00 -5.17230e-02 -5.42359e-02
       H -5.46420e-01 -8.10417e-01  6.11755e-01
       L  1.38700e+00  8.20780e-01  3.06070e-02
       L  4.25910e-01 -8.96376e-01 -6.47639e-01
6
# CELL(abcABC):  459.05226   459.05226   459.05226    90.00000    90.00000    90.00000  Step:          37  Bead:       0 x_centroid{angstrom}  cell{atomic_unit}
       C -2.64400e-01 -5.24603e-04 -3.47188e-03
       O  9.01004e-01  2.23458e-01 -1.46995e-01
       H -1.80588e+00 -4.68760e-02 -6.44937e-02
       H -5.11382e-01 -8.25223e-01  6.20790e-01
       L  1.58369e+00  5.62015e-01 -1.52373e-01
       L  4.72541e-01 -8.42095e-01 -1.24662e+00
6
# CELL(abcABC):  459.05226   459.05226   459.05226    90.00000    90.00000    90.00000  Step:          38  Bead:       0 x_centroid{angstrom}  cell{atomic_unit}
       C -2.70041e-01 -1.55938e-03 -1.86190e-03
       O  9.00593e-01  2.24587e-01 -1.47934e-01
       H -1.76874e+00 -3.52482e-02 -8.03274e-02
       H -4.74920e-01 -8.42318e-01  6.32740e-01
       L  1.73898e+00  2.82342e-01 -3.11457e-01
       L  5.52509e-01 -7.93153e-01 -1.82091e+00
6
# CELL(abcABC):  459.05226   459.05226   459.05226    90.00000    90.00000    90.00000  Step:          39  Bead:       0 x_centroid{angstrom}  cell{atomic_unit}
       C -2.75897e-01 -3.01232e-03  2.26553e-04
       O  8.99795e-01  2.25681e-01 -1.49192e-01
       H -1.72277e+00 -1.63032e-02 -1.00184e-01
       H -4.38498e-01 -8.61200e-01  6.48049e-01
       L  1.82104e+00  2.27032e-02 -4.02262e-01
       L  6.03124e-01 -7.61516e-01 -2.40834e+00
6
# CELL(abcABC):  459.05226   459.05226   459.05226    90.00000    90.00000    90.00000  Step:          40  Bead:       0 x_centroid{angstrom}  cell{atomic_unit}
       C -2.81822e-01 -5.35622e-03  3.11903e-03
       O  8.98355e-01  2.27127e-01 -1.50963e-01
       H -1.66592e+00  8.26596e-03 -1.23622e-01
       H -4.01961e-01 -8.80665e-01  6.65483e-01
       L  1.92077e+00 -2.63443e-01 -4.85263e-01
       L  6.30517e-01 -7.11268e-01 -2.96828e+00
6
# CELL(abcABC):  459.05226   459.05226   459.05226    90.00000    90.00000    90.00000  Step:          41  Bead:       0 x_centroid{angstrom}  cell{atomic_unit}
       C -2.87913e-01 -8.62499e-03  6.55861e-03
       O  8.96438e-01  2.28824e-01 -1.52787e-01
       H -1.60011e+00  3.95264e-02 -1.51809e-01
       H -3.64832e-01 -8.99792e-01  6.81909e-01
       L  2.01442e+00 -5.30755e-01 -5.05181e-01
       L  6.42004e-01 -6.44243e-01 -3.46193e+00
6
# CELL(abcABC):  459.05226   459.05226   459.05226    90.00000    90.00000    90.00000  Step:          42  Bead:       0 x_centroid{angstrom}  cell{atomic_unit}
       C -2.93964e-01 -1.28167e-02  1.05828e-02
       O  8.93963e-01  2.30745e-01 -1.54958e-01
       H -1.52433e+00  7.65898e-02 -1.81368e-01
       H -3.29270e-01 -9.17321e-01  6.98284e-01
       L  2.06654e+00 -7.43264e-01 -5.32049e-01
       L  6.68954e-01 -5.77269e-01 -3.99378e+00
6
# CELL(abcABC):  459.05226   459.05226   459.05226    90.00000    90.00000    90.00000  Step:          43  Bead:       0 x_centroid{angstrom}  cell{atomic_unit}
       C -2.99674e-01 -1.80821e-02  1.49534e-02
       O  8.90805e-01  2.33086e-01 -1.57123e-01
       H -1.43939e+00  1.18259e-01 -2.14173e-01
       H -2.96069e-01 -9.33325e-01  7.13671e-01
       L  2.10877e+00 -9.33669e-01 -5.74245e-01
       L  6.84778e-01 -5.34195e-01 -4.49133e+00
6
# CELL(abcABC):  459.05226   459.05226   459.05226    90.00000    90.00000    90.00000  Step:          44  Bead:       0 x_centroid{angstrom}  cell{atomic_unit}
       C -3.04662e-01 -2.43750e-02  1.99327e-02
       O  8.86898e-01  2.35818e-01 -1.59515e-01
       H -1.34719e+00  1.63983e-01 -2.48883e-01
       H -2.66797e-01 -9.47374e-01  7.27279e-01
       L  2.09720e+00 -1.12937e+00 -6.06671e-01
       L  6.95548e-01 -4.60747e-01 -4.93075e+00
6
# CELL(abcABC):  459.05226   459.05226   459.05226    90.00000    90.00000    90.00000  Step:          45  Bead:       0 x_centroid{angstrom}  cell{atomic_unit}
       C -3.08556e-01 -3.15248e-02  2.54435e-02
       O  8.82406e-01  2.38779e-01 -1.61989e-01
       H -1.25404e+00  2.12603e-01 -2.86438e-01
       H -2.42278e-01 -9.57773e-01  7.38636e-01
       L  2.13262e+00 -1.22105e+00 -6.03954e-01
       L  6.93970e-01 -4.05828e-01 -5.30723e+00
6
# CELL(abcABC):  459.05226   459.05226   459.05226    90.00000    90.00000    90.00000  Step:          46  Bead:       0 x_centroid{angstrom}  cell{atomic_unit}
       C -3.10969e-01 -3.96359e-02  3.15459e-02
       O  8.77253e-01  2.41926e-01 -1.64469e-01
       H -1.16423e+00  2.65823e-01 -3.27638e-01
       H -2.21518e-01 -9.64313e-01  7.46639e-01
       L  2.11359e+00 -1.29632e+00 -6.01190e-01
       L  6.88143e-01 -2.94559e-01 -5.60333e+00
6
# CELL(abcABC):  459.05226   459.05226   459.05226    90.00000    90.00000    90.00000  Step:          47  Bead:       0 x_centroid{angstrom}  cell{atomic_unit}
       C -3.11030e-01 -4.90044e-02  3.84389e-02
       O  8.71452e-01  2.45325e-01 -1.66984e-01
       H -1.08571e+00  3.24814e-01 -3.75014e-01
       H -2.07217e-01 -9.65642e-01  7.51949e-01
       L  2.07136e+00 -1.36326e+00 -6.24445e-01
       L  6.81218e-01 -1.82851e-01 -5.86321e+00
6
# CELL(abcABC):  459.05226   459.05226   459.05226    90.00000    90.00000    90.00000  Step:          48  Bead:       0 x_centroid{angstrom}  cell{atomic_unit}
       C -3.08561e-01 -5.94012e-02  4.62519e-02
       O  8.64979e-01  2.48835e-01 -1.69685e-01
       H -1.02109e+00  3.90171e-01 -4.28657e-01
       H -1.98440e-01 -9.62848e-01  7.55506e-01
       L  1.98263e+00 -1.38994e+00 -6.14037e-01
       L  6.84581e-01 -1.18324e-01 -6.12311e+00
6
# CELL(abcABC):  459.05226   459.05226   459.05226    90.00000    90.00000    90.00000  Step:          49  Bead:       0 x_centroid{angstrom}  cell{atomic_unit}
       C -3.03881e-01 -7.05335e-02  5.46144e-02
       O  8.57971e-01  2.52330e-01 -1.72400e-01
       H -9.68006e-01  4.60078e-01 -4.86107e-01
       H -1.95946e-01 -9.55617e-01  7.56558e-01
       L  1.85123e+00 -1.44666e+00 -6.83862e-01
       L  5.98127e-01  6.21319e-03 -6.33977e+00
6
# CELL(abcABC):  459.05226   459.05226   459.05226    90.00000    90.00000    90.00000  Step:          50  Bead:       0 x_centroid{angstrom}  cell{atomic_unit}
       C -2.97353e-01 -8.18473e-02  6.30479e-02
       O  8.50692e-01  2.55640e-01 -1.75082e-01
       H -9.25001e-01  5.32127e-01 -5.43763e-01
       H -2.01032e-01 -9.45461e-01  7.56372e-01
       L  1.70978e+00 -1.43822e+00 -6.93663e-01
       L  4.49687e-01  1.38594e-01 -6.47898e+00
6
# CELL(abcABC):  459.05226   459.05226   459.05226    90.00000    90.00000    90.00000  Step:          51  Bead:       0 x_centroid{angstrom}  cell{atomic_unit}
       C -2.89695e-01 -9.32645e-02  7.10852e-02
       O  8.43293e-01  2.59002e-01 -1.77495e-01
       H -8.87437e-01  6.02752e-01 -5.99502e-01
       H -2.12238e-01 -9.33514e-01  7.54678e-01
       L  1.57291e+00 -1.40382e+00 -6.39652e-01
       L  2.79144e-01  2.98076e-01 -6.57767e+00
6
# CELL(abcABC):  459.05226   459.05226   459.05226    90.00000    90.00000    90.00000  Step:          52  Bead:       0 x_centroid{angstrom}  cell{atomic_unit}
       C -2.81220e-01 -1.04040e-01  7.83192e-02
       O  8.35909e-01  2.62197e-01 -1.79639e-01
       H -8.53199e-01  6.67814e-01 -6.50113e-01
       H -2.30132e-01 -9.21045e-01  7.53095e-01
       L  1.47907e+00 -1.31833e+00 -5.70605e-01
       L  1.41030e-01  4.76802e-01 -6.61825e+00
6
# CELL(abcABC):  459.05226   459.05226   459.05226    90.00000    90.00000    90.00000  Step:          53  Bead:       0 x_centroid{angstrom}  cell{atomic_unit}
       C -2.72403e-01 -1.14035e-01  8.46028e-02
       O  8.28756e-01  2.65467e-01 -1.81620e-01
       H -8.21831e-01  7.25377e-01 -6.93973e-01
       H -2.52860e-01 -9.11586e-01  7.53496e-01
       L  1.37867e+00 -1.19219e+00 -4.88768e-01
       L -3.79444e-02  6.82090e-01 -6.63995e+00
6
# CELL(abcABC):  459.05226   459.05226   459.05226    90.00000    90.00000    90.00000  Step:          54  Bead:       0 x_centroid{angstrom}  cell{atomic_unit}
       C -2.63551e-01 -1.22735e-01  8.97134e-02
       O  8.22200e-01  2.68627e-01 -1.83460e-01
       H -7.94466e-01  7.72469e-01 -7.29705e-01
       H -2.81486e-01 -9.05353e-01  7.57435e-01
       L  1.27213e+00 -1.04430e+00 -3.68771e-01
       L -2.20293e-01  8.94078e-01 -6.58866e+00
6
# CELL(abcABC):  459.05226   459.05226   459.05226    90.00000    90.00000    90.00000  Step:          55  Bead:       0 x_centroid{angstrom}  cell{atomic_unit}
       C -2.54514e-01 -1.29819e-01  9.33537e-02
       O  8.16038e-01  2.71475e-01 -1.84911e-01
       H -7.70569e-01  8.10303e-01 -7.57153e-01
       H -3.15076e-01 -9.04173e-01  7.64403e-01
       L  1.10966e+00 -9.49866e-01 -2.44843e-01
       L -4.12881e-01  1.14457e+00 -6.45361e+00
6
# CELL(abcABC):  459.05226   459.05226   459.05226    90.00000    90.00000    90.00000  Step:          56  Bead:       0 x_centroid{angstrom}  cell{atomic_unit}
       C -2.45819e-01 -1.35592e-01  9.57338e-02
       O  8.10811e-01  2.74311e-01 -1.86196e-01
       H -7.53457e-01  8.37803e-01 -7.76535e-01
       H -3.52661e-01 -9.08100e-01  7.75669e-01
       L  9.90812e-01 -8.75834e-01 -1.42856e-01
       L -5.84603e-01  1.43598e+00 -6.27208e+00
6
# CELL(abcABC):  459.05226   459.05226   459.05226    90.00000    90.00000    90.00000  Step:          57  Bead:       0 x_centroid{angstrom}  cell{atomic_unit}
       C -2.37552e-01 -1.39995e-01  9.70373e-02
       O  8.06433e-01  2.76928e-01 -1.87417e-01
       H -7.41710e-01  8.55924e-01 -7.87718e-01
       H -3.93253e-01 -9.15460e-01  7.90516e-01
       L  8.50764e-01 -8.20264e-01 -1.67103e-02
       L -7.46228e-01  1.67714e+00 -6.06242e+00
6
# CELL(abcABC):  459.05226   459.05226   459.05226    90.00000    90.00000    90.00000  Step:          58  Bead:       0 x_centroid{angstrom}  cell{atomic_unit}
       C -2.29753e-01 -1.43035e-01  9.74336e-02
       O  8.03017e-01  2.79257e-01 -1.88555e-01
       H -7.37153e-01  8.65249e-01 -7.91372e-01
       H -4.36384e-01 -9.25709e-01  8.07308e-01
       L  7.32151e-01 -7.38948e-01  1.07417e-01
       L -9.04607e-01  1.93517e+00 -5.81076e+00
6
# CELL(abcABC):  459.05226   459.05226   459.05226    90.00000    90.00000    90.00000  Step:          59  Bead:       0 x_centroid{angstrom}  cell{atomic_unit}
       C -2.22347e-01 -1.44949e-01  9.68095e-02
       O  8.00374e-01  2.81336e-01 -1.89606e-01
       H -7.38725e-01  8.64975e-01 -7.85389e-01
       H -4.80995e-01 -9.35794e-01  8.25226e-01
       L  6.65308e-01 -6.56734e-01  1.79260e-01
       L -1.04751e+00  2.16782e+00 -5.47362e+00
6
# CELL(abcABC):  459.05226   459.05226   459.05226    90.00000    90.00000    90.00000  Step:          60  Bead:       0 x_centroid{angstrom}  cell{atomic_unit}
       C -2.15934e-01 -1.46062e-01  9.54127e-02
       O  7.98941e-01  2.83366e-01 -1.90480e-01
       H -7.46981e-01  8.54867e-01 -7.72528e-01
       H -5.26280e-01 -9.44833e-01  8.42598e-01
       L  5.85510e-01 -5.36464e-01  2.73586e-01
       L -1.20774e+00  2.38108e+00 -5.06906e+00
6
# CELL(abcABC):  459.05226   459.05226   459.05226    90.00000    90.00000    90.00000  Step:          61  Bead:       0 x_centroid{angstrom}  cell{atomic_unit}
       C -2.10744e-01 -1.46677e-01  9.31869e-02
       O  7.98773e-01  2.85398e-01 -1.91018e-01
       H -7.61339e-01  8.35254e-01 -7.52759e-01
       H -5.70996e-01 -9.50281e-01  8.57589e-01
       L  5.33117e-01 -4.05029e-01  3.84858e-01
       L -1.33061e+00  2.50651e+00 -4.61334e+00
6
# CELL(abcABC):  459.05226   459.05226   459.05226    90.00000    90.00000    90.00000  Step:          62  Bead:       0 x_centroid{angstrom}  cell{atomic_unit}
       C -2.06944e-01 -1.46559e-01  9.03250e-02
       O  7.99898e-01  2.87364e-01 -1.91285e-01
       H -7.82253e-01  8.05003e-01 -7.26394e-01
       H -6.13153e-01 -9.52766e-01  8.69215e-01
       L  5.31295e-01 -3.27797e-01  4.91448e-01
       L -1.46890e+00  2.63501e+00 -4.05913e+00
6
# CELL(abcABC):  459.05226   459.05226   459.05226    90.00000    90.00000    90.00000  Step:          63  Bead:       0 x_centroid{angstrom}  cell{atomic_unit}
       C -2.04904e-01 -1.45757e-01  8.67991e-02
       O  8.02592e-01  2.89137e-01 -1.91106e-01
       H -8.08995e-01  7.65282e-01 -6.94194e-01
       H -6.53386e-01 -9.50798e-01  8.75829e-01
       L  5.01442e-01 -3.07330e-01  5.41040e-01
       L -1.61132e+00  2.71347e+00 -3.46549e+00
6
# CELL(abcABC):  459.05226   459.05226   459.05226    90.00000    90.00000    90.00000  Step:          64  Bead:       0 x_centroid{angstrom}  cell{atomic_unit}
       C -2.04312e-01 -1.44576e-01  8.28849e-02
       O  8.06373e-01  2.90885e-01 -1.90673e-01
       H -8.40124e-01  7.17299e-01 -6.56882e-01
       H -6.89274e-01 -9.44644e-01  8.77935e-01
       L  5.00814e-01 -3.32620e-01  5.46247e-01
       L -1.71271e+00  2.76807e+00 -2.82894e+00
6
# CELL(abcABC):  459.05226   459.05226   459.05226    90.00000    90.00000    90.00000  Step:          65  Bead:       0 x_centroid{angstrom}  cell{atomic_unit}
       C -2.05164e-01 -1.42617e-01  7.87855e-02
       O  8.11310e-01  2.92264e-01 -1.90157e-01
       H -8.76192e-01  6.61746e-01 -6.13417e-01
       H -7.21396e-01 -9.34353e-01  8.74796e-01
       L  5.40149e-01 -3.37281e-01  5.09641e-01
       L -1.79070e+00  2.81199e+00 -2.17396e+00
6
# CELL(abcABC):  459.05226   459.05226   459.05226    90.00000    90.00000    90.00000  Step:          66  Bead:       0 x_centroid{angstrom}  cell{atomic_unit}
       C -2.07509e-01 -1.40106e-01  7.43791e-02