6
# CELL(abcABC):  459.05226   459.05226   459.05226    90.00000    90.00000    90.00000  Step:           0  Bead:       0 x_centroid{angstrom}  cell{atomic_unit}
       C -3.39887e-01 -1.13437e-01  8.06659e-02
       O  8.43483e-01  2.62672e-01 -1.81512e-01
       H -7.35799e-02  8.16467e-01 -6.61432e-01
       H -4.30016e-01 -9.65701e-01  7.62278e-01
       L  0.00000e+00  0.00000e+00  0.00000e+00
       L  0.00000e+00  0.00000e+00  0.00000e+00
6
# CELL(abcABC):  459.05226   459.05226   459.05226    90.00000    90.00000    90.00000  Step:           1  Bead:       0 x_centroid{angstrom}  cell{atomic_unit}
       C -3.39712e-01 -1.11535e-01  7.96696e-02
       O  8.43128e-01  2.60679e-01 -1.79797e-01
       H -6.17110e-02  8.14646e-01 -6.67649e-01
       H -4.38097e-01 -9.55346e-01  7.53503e-01
       L -2.05913e-01  2.45900e-01 -2.79248e-01
       L -2.20323e-01  5.47895e-01 -3.97782e-01
6
# CELL(abcABC):  459.05226   459.05226   459.05226    90.00000    90.00000    90.00000  Step:           2  Bead:       0 x_centroid{angstrom}  cell{atomic_unit}
       C -3.39701e-01 -1.09623e-01  7.84175e-02
       O  8.42785e-01  2.58842e-01 -1.77902e-01
       H -4.87595e-02  8.11742e-01 -6.74360e-01
       H -4.45496e-01 -9.46521e-01  7.45421e-01
       L -4.13184e-01  5.23876e-01 -4.84935e-01
       L -4.59803e-01  1.11063e+00 -8.63832e-01
6
# CELL(abcABC):  459.05226   459.05226   459.05226    90.00000    90.00000    90.00000  Step:           3  Bead:       0 x_centroid{angstrom}  cell{atomic_unit}
       C -3.39889e-01 -1.07520e-01  7.70474e-02
       O  8.42582e-01  2.56935e-01 -1.76017e-01
       H -3.62452e-02  8.09059e-01 -6.81088e-01
       H -4.52359e-01 -9.39034e-01  7.38887e-01
       L -5.20629e-01  7.98321e-01 -6.80699e-01
       L -6.93423e-01  1.58152e+00 -1.28101e+00
6
# CELL(abcABC):  459.05226   459.05226   459.05226    90.00000    90.00000    90.00000  Step:           4  Bead:       0 x_centroid{angstrom}  cell{atomic_unit}
       C -3.40119e-01 -1.05079e-01  7.56482e-02
       O  8.42376e-01  2.54872e-01 -1.74153e-01
       H -2.36916e-02  8.06682e-01 -6.88051e-01
       H -4.58690e-01 -9.33391e-01  7.33271e-01
       L -6.66719e-01  1.07464e+00 -8.82234e-01
       L -9.28580e-01  2.01849e+00 -1.69283e+00
6
# CELL(abcABC):  459.05226   459.05226   459.05226    90.00000    90.00000    90.00000  Step:           5  Bead:       0 x_centroid{angstrom}  cell{atomic_unit}
       C -3.40314e-01 -1.02732e-01  7.41865e-02
       O  8.42010e-01  2.53055e-01 -1.72427e-01
       H -1.03225e-02  8.04085e-01 -6.94650e-01
       H -4.63736e-01 -9.30287e-01  7.30175e-01
       L -7.94262e-01  1.32304e+00 -1.03331e+00
       L -1.16920e+00  2.42783e+00 -2.05668e+00
6
# CELL(abcABC):  459.05226   459.05226   459.05226    90.00000    90.00000    90.00000  Step:           6  Bead:       0 x_centroid{angstrom}  cell{atomic_unit}
       C -3.40844e-01 -1.00313e-01  7.24737e-02
       O  8.41780e-01  2.51415e-01 -1.70535e-01
       H  5.37922e-03  8.00478e-01 -7.01250e-01
       H -4.69274e-01 -9.29842e-01  7.27433e-01
       L -8.97903e-01  1.56804e+00 -1.23300e+00
       L -1.40115e+00  2.86577e+00 -2.39127e+00
6
# CELL(abcABC):  459.05226   459.05226   459.05226    90.00000    90.00000    90.00000  Step:           7  Bead:       0 x_centroid{angstrom}  cell{atomic_unit}
       C -3.41831e-01 -9.78989e-02  7.08090e-02
       O  8.41664e-01  2.49788e-01 -1.68827e-01
       H  2.38483e-02  7.97929e-01 -7.07321e-01
       H -4.73994e-01 -9.30602e-01  7.26474e-01
       L -9.59720e-01  1.78814e+00 -1.40715e+00
       L -1.63383e+00  3.32542e+00 -2.64726e+00
6
# CELL(abcABC):  459.05226   459.05226   459.05226    90.00000    90.00000    90.00000  Step:           8  Bead:       0 x_centroid{angstrom}  cell{atomic_unit}
       C -3.42902e-01 -9.55211e-02  6.91028e-02
       O  8.41488e-01  2.48210e-01 -1.67259e-01
       H  4.40398e-02  7.95795e-01 -7.12533e-01
       H -4.78479e-01 -9.32129e-01  7.27351e-01
       L -9.93209e-01  1.99453e+00 -1.59867e+00
       L -1.86617e+00  3.80758e+00 -2.86235e+00
6
# CELL(abcABC):  459.05226   459.05226   459.05226    90.00000    90.00000    90.00000  Step:           9  Bead:       0 x_centroid{angstrom}  cell{atomic_unit}
       C -3.44618e-01 -9.35799e-02  6.73154e-02
       O  8.41546e-01  2.47059e-01 -1.65627e-01
       H  6.83512e-02  7.93930e-01 -7.19470e-01
       H -4.83176e-01 -9.35497e-01  7.29871e-01
       L -9.75879e-01  2.22121e+00 -1.77486e+00
       L -2.04481e+00  4.26464e+00 -3.06047e+00
6
# CELL(abcABC):  459.05226   459.05226   459.05226    90.00000    90.00000    90.00000  Step:          10  Bead:       0 x_centroid{angstrom}  cell{atomic_unit}
       C -3.46345e-01 -9.17660e-02  6.57583e-02
       O  8.41485e-01  2.45847e-01 -1.64204e-01
       H  9.59007e-02  7.94445e-01 -7.26398e-01
       H -4.89114e-01 -9.38681e-01  7.32952e-01
       L -9.69030e-01  2.39046e+00 -1.93705e+00
       L -2.19171e+00  4.64831e+00 -3.22278e+00
6
# CELL(abcABC):  459.05226   459.05226   459.05226    90.00000    90.00000    90.00000  Step:          11  Bead:       0 x_centroid{angstrom}  cell{atomic_unit}
       C -3.48823e-01 -9.05067e-02  6.44585e-02
       O  8.41576e-01  2.44952e-01 -1.62869e-01
       H  1.28456e-01  7.98346e-01 -7.34567e-01
       H -4.93509e-01 -9.43627e-01  7.35603e-01
       L -9.82495e-01  2.55882e+00 -2.13243e+00
       L -2.31468e+00  4.92147e+00 -3.36670e+00
6
# CELL(abcABC):  459.05226   459.05226   459.05226    90.00000    90.00000    90.00000  Step:          12  Bead:       0 x_centroid{angstrom}  cell{atomic_unit}
       C -3.51982e-01 -8.95529e-02  6.37792e-02
       O  8.41673e-01  2.44209e-01 -1.61939e-01
       H  1.67932e-01  8.04016e-01 -7.43706e-01
       H -4.96829e-01 -9.49080e-01  7.38215e-01
       L -9.97408e-01  2.71679e+00 -2.25460e+00
       L -2.39439e+00  5.14948e+00 -3.49287e+00
6
# CELL(abcABC):  459.05226   459.05226   459.05226    90.00000    90.00000    90.00000  Step:          13  Bead:       0 x_centroid{angstrom}  cell{atomic_unit}
       C -3.55669e-01 -8.89503e-02  6.38463e-02
       O  8.41503e-01  2.43491e-01 -1.61620e-01
       H  2.17122e-01  8.12496e-01 -7.52829e-01
       H -4.99389e-01 -9.53519e-01  7.41552e-01
       L -9.83480e-01  2.83585e+00 -2.33422e+00
       L -2.38417e+00  5.35088e+00 -3.56021e+00
6
# CELL(abcABC):  459.05226   459.05226   459.05226    90.00000    90.00000    90.00000  Step:          14  Bead:       0 x_centroid{angstrom}  cell{atomic_unit}
       C -3.59905e-01 -8.88843e-02  6.40235e-02
       O  8.41102e-01  2.43102e-01 -1.61358e-01
       H  2.74990e-01  8.22099e-01 -7.63064e-01
       H -5.00386e-01 -9.57811e-01  7.45544e-01
       L -1.01198e+00  2.87030e+00 -2.37146e+00
       L -2.40563e+00  5.46581e+00 -3.57270e+00
6
# CELL(abcABC):  459.05226   459.05226   459.05226    90.00000    90.00000    90.00000  Step:          15  Bead:       0 x_centroid{angstrom}  cell{atomic_unit}
       C -3.64918e-01 -8.95713e-02  6.45131e-02
       O  8.40583e-01  2.43136e-01 -1.61353e-01
       H  3.41205e-01  8.32853e-01 -7.72961e-01
       H -4.98633e-01 -9.61002e-01  7.49526e-01
       L -1.01863e+00  2.89382e+00 -2.38221e+00
       L -2.40097e+00  5.59111e+00 -3.56688e+00
6
# CELL(abcABC):  459.05226   459.05226   459.05226    90.00000    90.00000    90.00000  Step:          16  Bead:       0 x_centroid{angstrom}  cell{atomic_unit}
       C -3.70733e-01 -9.06850e-02  6.55408e-02
       O  8.39939e-01  2.43343e-01 -1.61701e-01
       H  4.15559e-01  8.44754e-01 -7.84930e-01
       H -4.93490e-01 -9.62969e-01  7.54739e-01
       L -1.03713e+00  2.89250e+00 -2.40587e+00
       L -2.35204e+00  5.68766e+00 -3.48747e+00
6
# CELL(abcABC):  459.05226   459.05226   459.05226    90.00000    90.00000    90.00000  Step:          17  Bead:       0 x_centroid{angstrom}  cell{atomic_unit}
       C -3.77258e-01 -9.23320e-02  6.68685e-02
       O  8.39185e-01  2.43681e-01 -1.62175e-01
       H  4.96079e-01  8.59856e-01 -7.97669e-01
       H -4.84339e-01 -9.63770e-01  7.59129e-01
       L -9.88105e-01  2.80529e+00 -2.43106e+00
       L -2.29789e+00  5.70411e+00 -3.35276e+00
6
# CELL(abcABC):  459.05226   459.05226   459.05226    90.00000    90.00000    90.00000  Step:          18  Bead:       0 x_centroid{angstrom}  cell{atomic_unit}
       C -3.84303e-01 -9.42775e-02  6.83124e-02
       O  8.38362e-01  2.43956e-01 -1.62609e-01
       H  5.81777e-01  8.77902e-01 -8.11661e-01
       H -4.73118e-01 -9.62912e-01  7.62638e-01
       L -9.26824e-01  2.68613e+00 -2.34410e+00
       L -2.19921e+00  5.66736e+00 -3.14149e+00
6
# CELL(abcABC):  459.05226   459.05226   459.05226    90.00000    90.00000    90.00000  Step:          19  Bead:       0 x_centroid{angstrom}  cell{atomic_unit}
       C -3.91879e-01 -9.62617e-02  6.99830e-02
       O  8.37575e-01  2.44065e-01 -1.63066e-01
       H  6.71061e-01  8.98850e-01 -8.28109e-01
       H -4.59785e-01 -9.61803e-01  7.66288e-01
       L -8.61260e-01  2.53232e+00 -2.31367e+00
       L -1.99656e+00  5.56654e+00 -2.91237e+00
6
# CELL(abcABC):  459.05226   459.05226   459.05226    90.00000    90.00000    90.00000  Step:          20  Bead:       0 x_centroid{angstrom}  cell{atomic_unit}
       C -3.99286e-01 -9.86231e-02  7.16506e-02
       O  8.36296e-01  2.44228e-01 -1.63415e-01
       H  7.64006e-01  9.21623e-01 -8.45279e-01
       H -4.44329e-01 -9.58853e-01  7.68953e-01
       L -7.87383e-01  2.33994e+00 -2.26520e+00
       L -1.76239e+00  5.41892e+00 -2.63225e+00
6
# CELL(abcABC):  459.05226   459.05226   459.05226    90.00000    90.00000    90.00000  Step:          21  Bead:       0 x_centroid{angstrom}  cell{atomic_unit}
       C -4.06652e-01 -1.00774e-01  7.38024e-02
       O  8.34811e-01  2.44270e-01 -1.64201e-01
       H  8.58030e-01  9.43614e-01 -8.60738e-01
       H -4.27175e-01 -9.55655e-01  7.71019e-01
       L -7.13926e-01  2.16473e+00 -2.20053e+00
       L -1.50623e+00  5.19763e+00 -2.28614e+00
6
# CELL(abcABC):  459.05226   459.05226   459.05226    90.00000    90.00000    90.00000  Step:          22  Bead:       0 x_centroid{angstrom}  cell{atomic_unit}
       C -4.14272e-01 -1.02644e-01  7.59997e-02
       O  8.33376e-01  2.44283e-01 -1.65228e-01
       H  9.51746e-01  9.62919e-01 -8.72827e-01
       H -4.07521e-01 -9.52605e-01  7.72979e-01
       L -6.36198e-01  1.98075e+00 -2.11195e+00
       L -1.22580e+00  4.86981e+00 -1.92177e+00
6
# CELL(abcABC):  459.05226   459.05226   459.05226    90.00000    90.00000    90.00000  Step:          23  Bead:       0 x_centroid{angstrom}  cell{atomic_unit}
       C -4.21933e-01 -1.03905e-01  7.81486e-02
       O  8.32062e-01  2.44149e-01 -1.66570e-01
       H  1.04245e+00  9.77569e-01 -8.79618e-01
       H -3.86291e-01 -9.49740e-01  7.75210e-01
       L -5.22776e-01  1.73806e+00 -2.01031e+00
       L -9.46647e-01  4.45495e+00 -1.54323e+00
6
# CELL(abcABC):  459.05226   459.05226   459.05226    90.00000    90.00000    90.00000  Step:          24  Bead:       0 x_centroid{angstrom}  cell{atomic_unit}
       C -4.29658e-01 -1.04859e-01  8.02940e-02
       O  8.30936e-01  2.44126e-01 -1.68334e-01
       H  1.12872e+00  9.86789e-01 -8.80724e-01
       H -3.62820e-01 -9.46858e-01  7.78431e-01
       L -4.43368e-01  1.48886e+00 -1.80737e+00
       L -6.87577e-01  4.02662e+00 -1.14955e+00
6
# CELL(abcABC):  459.05226   459.05226   459.05226    90.00000    90.00000    90.00000  Step:          25  Bead:       0 x_centroid{angstrom}  cell{atomic_unit}
       C -4.37143e-01 -1.05486e-01  8.20318e-02
       O  8.29841e-01  2.44252e-01 -1.70222e-01
       H  1.20947e+00  9.90212e-01 -8.74885e-01
       H -3.37174e-01 -9.44427e-01  7.81493e-01
       L -3.07206e-01  1.26480e+00 -1.52883e+00
       L -4.83984e-01  3.55455e+00 -7.70060e-01
6
# CELL(abcABC):  459.05226   459.05226   459.05226    90.00000    90.00000    90.00000  Step:          26  Bead:       0 x_centroid{angstrom}  cell{atomic_unit}
       C -4.44356e-01 -1.05819e-01  8.33987e-02
       O  8.28994e-01  2.44551e-01 -1.72268e-01
       H  1.28228e+00  9.86404e-01 -8.61601e-01
       H -3.10793e-01 -9.40958e-01  7.84030e-01
       L -1.58545e-01  9.53123e-01 -1.26662e+00
       L -2.73780e-01  3.03017e+00 -3.62562e-01
6
# CELL(abcABC):  459.05226   459.05226   459.05226    90.00000    90.00000    90.00000  Step:          27  Bead:       0 x_centroid{angstrom}  cell{atomic_unit}
       C -4.50910e-01 -1.06047e-01  8.44312e-02
       O  8.28220e-01  2.45257e-01 -1.74651e-01
       H  1.34621e+00  9.74045e-01 -8.39781e-01
       H -2.84522e-01 -9.36587e-01  7.87381e-01
       L -1.72024e-02  6.28963e-01 -9.99467e-01
       L -8.26874e-02  2.42609e+00  1.96223e-02
6
# CELL(abcABC):  459.05226   459.05226   459.05226    90.00000    90.00000    90.00000  Step:          28  Bead:       0 x_centroid{angstrom}  cell{atomic_unit}
       C -4.56557e-01 -1.06010e-01  8.51171e-02
       O  8.27495e-01  2.46231e-01 -1.77067e-01
       H  1.39999e+00  9.53538e-01 -8.12477e-01
       H -2.59660e-01 -9.31438e-01  7.89945e-01
       L  1.02456e-01  2.70543e-01 -7.98512e-01
       L  1.03236e-01  1.81207e+00  3.77730e-01
6
# CELL(abcABC):  459.05226   459.05226   459.05226    90.00000    90.00000    90.00000  Step:          29  Bead:       0 x_centroid{angstrom}  cell{atomic_unit}
       C -4.61658e-01 -1.05501e-01  8.57883e-02
       O  8.27024e-01  2.47313e-01 -1.79834e-01
       H  1.44278e+00  9.25502e-01 -7.78986e-01
       H -2.34347e-01 -9.26083e-01  7.92100e-01
       L  2.26507e-01 -1.12562e-01 -6.10666e-01
       L  2.58405e-01  1.16776e+00  7.18266e-01
6
# CELL(abcABC):  459.05226   459.05226   459.05226    90.00000    90.00000    90.00000  Step:          30  Bead:       0 x_centroid{angstrom}  cell{atomic_unit}
       C -4.66226e-01 -1.04424e-01  8.63281e-02
       O  8.26931e-01  2.48315e-01 -1.82815e-01
       H  1.47335e+00  8.92097e-01 -7.40746e-01
       H -2.09110e-01 -9.20873e-01  7.94422e-01
       L  2.84707e-01 -4.58480e-01 -4.20764e-01
       L  3.99867e-01  5.10533e-01  1.10351e+00
6
# CELL(abcABC):  459.05226   459.05226   459.05226    90.00000    90.00000    90.00000  Step:          31  Bead:       0 x_centroid{angstrom}  cell{atomic_unit}
       C -4.70354e-01 -1.03092e-01  8.64324e-02
       O  8.27141e-01  2.49295e-01 -1.85635e-01
       H  1.49423e+00  8.54916e-01 -6.99011e-01
       H -1.84255e-01 -9.14533e-01  7.95922e-01
       L  3.17020e-01 -8.66180e-01 -2.57227e-01
       L  5.87857e-01 -1.84238e-01  1.45913e+00
6
# CELL(abcABC):  459.05226   459.05226   459.05226    90.00000    90.00000    90.00000  Step:          32  Bead:       0 x_centroid{angstrom}  cell{atomic_unit}
       C -4.73964e-01 -1.01602e-01  8.66413e-02
       O  8.27581e-01  2.50348e-01 -1.88738e-01
       H  1.50521e+00  8.14871e-01 -6.54857e-01
       H -1.59336e-01 -9.08337e-01  7.98248e-01
       L  3.60492e-01 -1.28984e+00 -3.84779e-02
       L  7.73639e-01 -8.80651e-01  1.76466e+00
6
# CELL(abcABC):  459.05226   459.05226   459.05226    90.00000    90.00000    90.00000  Step:          33  Bead:       0 x_centroid{angstrom}  cell{atomic_unit}
       C -4.76508e-01 -1.00124e-01  8.68490e-02
       O  8.27992e-01  2.51338e-01 -1.91757e-01
       H  1.50759e+00  7.73660e-01 -6.10474e-01
       H -1.38033e-01 -8.99906e-01  7.99088e-01
       L  3.95188e-01 -1.64041e+00  1.47363e-01
       L  9.44682e-01 -1.55085e+00  2.01055e+00
6
# CELL(abcABC):  459.05226   459.05226   459.05226    90.00000    90.00000    90.00000  Step:          34  Bead:       0 x_centroid{angstrom}  cell{atomic_unit}
       C -4.78120e-01 -9.86428e-02  8.72787e-02
       O  8.28239e-01  2.52180e-01 -1.94702e-01
       H  1.50534e+00  7.34680e-01 -5.68870e-01
       H -1.20605e-01 -8.91384e-01  7.98906e-01
       L  4.20955e-01 -2.03678e+00  3.00550e-01
       L  1.14092e+00 -2.15004e+00  2.22025e+00
6
# CELL(abcABC):  459.05226   459.05226   459.05226    90.00000    90.00000    90.00000  Step:          35  Bead:       0 x_centroid{angstrom}  cell{atomic_unit}
       C -4.78997e-01 -9.71021e-02  8.76141e-02
       O  8.28078e-01  2.52600e-01 -1.97254e-01
       H  1.50362e+00  7.01328e-01 -5.32782e-01
       H -1.05964e-01 -8.82525e-01  7.99197e-01
       L  3.64917e-01 -2.45293e+00  3.72127e-01
       L  1.34259e+00 -2.73615e+00  2.39072e+00
6
# CELL(abcABC):  459.05226   459.05226   459.05226    90.00000    90.00000    90.00000  Step:          36  Bead:       0 x_centroid{angstrom}  cell{atomic_unit}
       C -4.78737e-01 -9.54216e-02  8.76395e-02
       O  8.26939e-01  2.52324e-01 -1.99096e-01
       H  1.50685e+00  6.75997e-01 -5.04373e-01
       H -9.42778e-02 -8.72341e-01  7.99627e-01
       L  2.49286e-01 -2.84644e+00  4.47785e-01
       L  1.55936e+00 -3.23923e+00  2.48923e+00
6
# CELL(abcABC):  459.05226   459.05226   459.05226    90.00000    90.00000    90.00000  Step:          37  Bead:       0 x_centroid{angstrom}  cell{atomic_unit}
       C -4.77281e-01 -9.36234e-02  8.77868e-02
       O  8.24431e-01  2.51269e-01 -2.00437e-01
       H  1.52221e+00  6.61554e-01 -4.83996e-01
       H -8.72586e-02 -8.62199e-01  7.98681e-01
       L  1.51016e-01 -3.15594e+00  5.08198e-01
       L  1.79832e+00 -3.64378e+00  2.62706e+00
6
# CELL(abcABC):  459.05226   459.05226   459.05226    90.00000    90.00000    90.00000  Step:          38  Bead:       0 x_centroid{angstrom}  cell{atomic_unit}
       C -4.75022e-01 -9.20130e-02  8.79778e-02
       O  8.20900e-01  2.49769e-01 -2.01293e-01
       H  1.54958e+00  6.56991e-01 -4.71586e-01
       H -8.55197e-02 -8.52685e-01  7.97497e-01
       L  1.73721e-02 -3.40234e+00  5.71990e-01
       L  1.98676e+00 -3.98140e+00  2.71071e+00
6
# CELL(abcABC):  459.05226   459.05226   459.05226    90.00000    90.00000    90.00000  Step:          39  Bead:       0 x_centroid{angstrom}  cell{atomic_unit}
       C -4.71811e-01 -9.05743e-02  8.78282e-02
       O  8.16443e-01  2.47949e-01 -2.01643e-01
       H  1.58580e+00  6.59846e-01 -4.64691e-01
       H -8.92838e-02 -8.43470e-01  7.97844e-01
       L -9.72391e-02 -3.62420e+00  6.58974e-01
       L  2.15030e+00 -4.37468e+00  2.80751e+00
6
# CELL(abcABC):  459.05226   459.05226   459.05226    90.00000    90.00000    90.00000  Step:          40  Bead:       0 x_centroid{angstrom}  cell{atomic_unit}
       C -4.67995e-01 -8.92863e-02  8.73596e-02
       O  8.11749e-01  2.46080e-01 -2.01548e-01
       H  1.62289e+00  6.65928e-01 -4.60677e-01
       H -9.73458e-02 -8.34915e-01  7.97813e-01
       L -1.74485e-01 -3.81825e+00  7.39900e-01
       L  2.27046e+00 -4.76964e+00  2.89803e+00
6
# CELL(abcABC):  459.05226   459.05226   459.05226    90.00000    90.00000    90.00000  Step:          41  Bead:       0 x_centroid{angstrom}  cell{atomic_unit}
       C -4.63653e-01 -8.78606e-02  8.67969e-02
       O  8.07142e-01  2.44259e-01 -2.01328e-01
       H  1.65649e+00  6.71868e-01 -4.58127e-01
       H -1.09592e-01 -8.28656e-01  7.98430e-01
       L -2.28707e-01 -3.93857e+00  7.70715e-01
       L  2.39011e+00 -5.14363e+00  2.94963e+00
6
# CELL(abcABC):  459.05226   459.05226   459.05226    90.00000    90.00000    90.00000  Step:          42  Bead:       0 x_centroid{angstrom}  cell{atomic_unit}
       C -4.58857e-01 -8.62366e-02  8.62855e-02
       O  8.03031e-01  2.42504e-01 -2.01195e-01
       H  1.68136e+00  6.78124e-01 -4.56581e-01
       H -1.26423e-01 -8.26165e-01  8.00875e-01
       L -2.21321e-01 -4.01763e+00  7.61397e-01
       L  2.49724e+00 -5.50755e+00  2.94914e+00
6
# CELL(abcABC):  459.05226   459.05226   459.05226    90.00000    90.00000    90.00000  Step:          43  Bead:       0 x_centroid{angstrom}  cell{atomic_unit}
       C -4.53683e-01 -8.41810e-02  8.55905e-02
       O  7.99286e-01  2.40754e-01 -2.01065e-01
       H  1.69743e+00  6.81858e-01 -4.55215e-01
       H -1.44738e-01 -8.26413e-01  8.05778e-01
       L -2.43087e-01 -4.10781e+00  6.86943e-01
       L  2.59161e+00 -5.80044e+00  2.91168e+00
6
# CELL(abcABC):  459.05226   459.05226   459.05226    90.00000    90.00000    90.00000  Step:          44  Bead:       0 x_centroid{angstrom}  cell{atomic_unit}
       C -4.48387e-01 -8.22400e-02  8.43943e-02
       O  7.96291e-01  2.39424e-01 -2.00879e-01
       H  1.70345e+00  6.82749e-01 -4.51698e-01
       H -1.66407e-01 -8.29166e-01  8.13665e-01
       L -2.17825e-01 -4.14768e+00  5.58389e-01
       L  2.71869e+00 -6.03321e+00  2.87365e+00
6
# CELL(abcABC):  459.05226   459.05226   459.05226    90.00000    90.00000    90.00000  Step:          45  Bead:       0 x_centroid{angstrom}  cell{atomic_unit}
       C -4.42856e-01 -8.01540e-02  8.29344e-02
       O  7.93818e-01  2.38291e-01 -2.00743e-01
       H  1.69985e+00  6.80712e-01 -4.46127e-01
       H -1.89556e-01 -8.33911e-01  8.23462e-01
       L -1.47655e-01 -4.15007e+00  4.13544e-01
       L  2.80462e+00 -6.21528e+00  2.77786e+00
6
# CELL(abcABC):  459.05226   459.05226   459.05226    90.00000    90.00000    90.00000  Step:          46  Bead:       0 x_centroid{angstrom}  cell{atomic_unit}
       C -4.36860e-01 -7.81136e-02  8.16034e-02
       O  7.92040e-01  2.37507e-01 -2.00908e-01
       H  1.68472e+00  6.74130e-01 -4.39023e-01
       H -2.17756e-01 -8.39126e-01  8.34966e-01
       L -1.13959e-02 -4.17032e+00  2.58492e-01
       L  2.88635e+00 -6.31741e+00  2.69546e+00
6
# CELL(abcABC):  459.05226   459.05226   459.05226    90.00000    90.00000    90.00000  Step:          47  Bead:       0 x_centroid{angstrom}  cell{atomic_unit}
       C -4.30647e-01 -7.59808e-02  8.02406e-02
       O  7.90873e-01  2.36873e-01 -2.01168e-01
       H  1.65937e+00  6.65378e-01 -4.30596e-01
       H -2.48012e-01 -8.45665e-01  8.47046e-01
       L  8.42387e-02 -4.19726e+00  1.14883e-01
       L  2.95446e+00 -6.39896e+00  2.58220e+00
6
# CELL(abcABC):  459.05226   459.05226   459.05226    90.00000    90.00000    90.00000  Step:          48  Bead:       0 x_centroid{angstrom}  cell{atomic_unit}
       C -4.24417e-01 -7.37692e-02  7.91250e-02
       O  7.90233e-01  2.36300e-01 -2.01713e-01
       H  1.62698e+00  6.55362e-01 -4.21328e-01
       H -2.79763e-01 -8.52866e-01  8.59894e-01
       L  1.56804e-01 -4.22642e+00 -2.86867e-02
       L  3.00566e+00 -6.43780e+00  2.41136e+00
6
# CELL(abcABC):  459.05226   459.05226   459.05226    90.00000    90.00000    90.00000  Step:          49  Bead:       0 x_centroid{angstrom}  cell{atomic_unit}
       C -4.18009e-01 -7.17469e-02  7.78267e-02
       O  7.89841e-01  2.35794e-01 -2.02178e-01
       H  1.59023e+00  6.45432e-01 -4.11608e-01
       H -3.13211e-01 -8.58968e-01  8.73169e-01
       L  2.98822e-01 -4.27370e+00 -1.46904e-01
       L  2.96975e+00 -6.46679e+00  2.25302e+00
6
# CELL(abcABC):  459.05226   459.05226   459.05226    90.00000    90.00000    90.00000  Step:          50  Bead:       0 x_centroid{angstrom}  cell{atomic_unit}
       C -4.12086e-01 -6.98683e-02  7.66976e-02
       O  7.89646e-01  2.35116e-01 -2.02603e-01
       H  1.55345e+00  6.39272e-01 -4.03305e-01
       H -3.44004e-01 -8.64391e-01  8.85226e-01
       L  4.84018e-01 -4.37212e+00 -2.98421e-01
       L  2.92514e+00 -6.44135e+00  2.10767e+00
6
# CELL(abcABC):  459.05226   459.05226   459.05226    90.00000    90.00000    90.00000  Step:          51  Bead:       0 x_centroid{angstrom}  cell{atomic_unit}
       C -4.06698e-01 -6.80494e-02  7.57208e-02
       O  7.89494e-01  2.34057e-01 -2.02754e-01
       H  1.52296e+00  6.38312e-01 -3.99824e-01
       H -3.75351e-01 -8.68301e-01  8.95986e-01
       L  6.35157e-01 -4.48306e+00 -4.32497e-01
       L  2.88770e+00 -6.31729e+00  1.88846e+00
6
# CELL(abcABC):  459.05226   459.05226   459.05226    90.00000    90.00000    90.00000  Step:          52  Bead:       0 x_centroid{angstrom}  cell{atomic_unit}
       C -4.01755e-01 -6.60705e-02  7.46087e-02
       O  7.88844e-01  2.32185e-01 -2.02469e-01
       H  1.50469e+00  6.46844e-01 -4.00808e-01
       H -4.05685e-01 -8.70778e-01  9.05951e-01
       L  7.05686e-01 -4.50316e+00 -6.22645e-01
       L  2.83608e+00 -6.16976e+00  1.61090e+00
6
# CELL(abcABC):  459.05226   459.05226   459.05226    90.00000    90.00000    90.00000  Step:          53  Bead:       0 x_centroid{angstrom}  cell{atomic_unit}
       C -3.97307e-01 -6.40302e-02  7.34724e-02
       O  7.87634e-01  2.29442e-01 -2.01604e-01
       H  1.49955e+00  6.66258e-01 -4.07847e-01
       H -4.34287e-01 -8.71040e-01  9.13045e-01
       L  7.43497e-01 -4.52436e+00 -8.37600e-01
       L  2.72812e+00 -6.00449e+00  1.37259e+00
6
# CELL(abcABC):  459.05226   459.05226   459.05226    90.00000    90.00000    90.00000  Step:          54  Bead:       0 x_centroid{angstrom}  cell{atomic_unit}
       C -3.93607e-01 -6.20987e-02  7.22557e-02
       O  7.86001e-01  2.25964e-01 -2.00236e-01
       H  1.50739e+00  6.95626e-01 -4.18995e-01
       H -4.60242e-01 -8.68377e-01  9.17231e-01
       L  7.86719e-01 -4.48049e+00 -1.09737e+00
       L  2.58376e+00 -5.74658e+00  1.15212e+00
6
# CELL(abcABC):  459.05226   459.05226   459.05226    90.00000    90.00000    90.00000  Step:          55  Bead:       0 x_centroid{angstrom}  cell{atomic_unit}
       C -3.90481e-01 -6.02545e-02  7.14679e-02
       O  7.84335e-01  2.22094e-01 -1.98827e-01
       H  1.52047e+00  7.30036e-01 -4.32757e-01
       H -4.84055e-01 -8.63540e-01  9.18267e-01
       L  8.08653e-01 -4.39409e+00 -1.37218e+00
       L  2.41477e+00 -5.45267e+00  9.74971e-01
6
# CELL(abcABC):  459.05226   459.05226   459.05226    90.00000    90.00000    90.00000  Step:          56  Bead:       0 x_centroid{angstrom}  cell{atomic_unit}
       C -3.88294e-01 -5.82883e-02  7.06399e-02
       O  7.83138e-01  2.17839e-01 -1.97086e-01
       H  1.53447e+00  7.66580e-01 -4.48353e-01
       H -5.05051e-01 -8.56237e-01  9.16369e-01
       L  8.71282e-01 -4.23061e+00 -1.68842e+00
       L  2.22365e+00 -5.11448e+00  7.92349e-01
6
# CELL(abcABC):  459.05226   459.05226   459.05226    90.00000    90.00000    90.00000  Step:          57  Bead:       0 x_centroid{angstrom}  cell{atomic_unit}
       C -3.87218e-01 -5.63688e-02  6.99471e-02
       O  7.82806e-01  2.13506e-01 -1.95231e-01
       H  1.54420e+00  8.02951e-01 -4.65366e-01
       H -5.22250e-01 -8.47003e-01  9.12462e-01
       L  9.34982e-01 -4.04403e+00 -2.01470e+00
       L  2.02794e+00 -4.77171e+00  6.21661e-01
6
# CELL(abcABC):  459.05226   459.05226   459.05226    90.00000    90.00000    90.00000  Step:          58  Bead:       0 x_centroid{angstrom}  cell{atomic_unit}
       C -3.87394e-01 -5.45018e-02  6.94132e-02
       O  7.83718e-01  2.09366e-01 -1.93365e-01
       H  1.54663e+00  8.35691e-01 -4.82401e-01
       H -5.36957e-01 -8.36594e-01  9.06490e-01
       L  9.60297e-01 -3.80397e+00 -2.32781e+00
       L  1.80241e+00 -4.39614e+00  4.52372e-01
6
# CELL(abcABC):  459.05226   459.05226   459.05226    90.00000    90.00000    90.00000  Step:          59  Bead:       0 x_centroid{angstrom}  cell{atomic_unit}
       C -3.88674e-01 -5.23502e-02  6.86047e-02
       O  7.85792e-01  2.05208e-01 -1.91258e-01
       H  1.53957e+00  8.64590e-01 -4.98344e-01
       H -5.47438e-01 -8.25483e-01  8.98837e-01
       L  9.55312e-01 -3.56149e+00 -2.58060e+00
       L  1.57073e+00 -4.01968e+00  3.11535e-01
6
# CELL(abcABC):  459.05226   459.05226   459.05226    90.00000    90.00000    90.00000  Step:          60  Bead:       0 x_centroid{angstrom}  cell{atomic_unit}
       C -3.91192e-01 -4.98020e-02  6.75672e-02
       O  7.89152e-01  2.01073e-01 -1.88878e-01
       H  1.52236e+00  8.87997e-01 -5.13403e-01
       H -5.53399e-01 -8.13979e-01  8.88704e-01
       L  9.27920e-01 -3.29707e+00 -2.79229e+00
       L  1.29887e+00 -3.62161e+00  1.23104e-01
6
# CELL(abcABC):  459.05226   459.05226   459.05226    90.00000    90.00000    90.00000  Step:          61  Bead:       0 x_centroid{angstrom}  cell{atomic_unit}
       C -3.94924e-01 -4.70434e-02  6.64189e-02
       O  7.93992e-01  1.97215e-01 -1.86347e-01
       H  1.49457e+00  9.04769e-01 -5.26972e-01
       H -5.57831e-01 -8.02744e-01  8.76002e-01
       L  9.32821e-01 -3.02209e+00 -3.00982e+00
       L  1.03445e+00 -3.21547e+00 -5.69800e-02
6
# CELL(abcABC):  459.05226   459.05226   459.05226    90.00000    90.00000    90.00000  Step:          62  Bead:       0 x_centroid{angstrom}  cell{atomic_unit}
       C -3.99543e-01 -4.39858e-02  6.51664e-02
       O  8.00122e-01  1.93547e-01 -1.83735e-01
       H  1.45373e+00  9.15960e-01 -5.39447e-01
       H -5.59069e-01 -7.92543e-01  8.62151e-01
       L  8.89673e-01 -2.71296e+00 -3.23842e+00
       L  7.65032e-01 -2.80746e+00 -2.19310e-01
6
# CELL(abcABC):  459.05226   459.05226   459.05226    90.00000    90.00000    90.00000  Step:          63  Bead:       0 x_centroid{angstrom}  cell{atomic_unit}
       C -4.05016e-01 -4.04187e-02  6.41247e-02
       O  8.07303e-01  1.89840e-01 -1.81227e-01
       H  1.40238e+00  9.22229e-01 -5.51145e-01
       H -5.56303e-01 -7.82882e-01  8.46619e-01
       L  8.17665e-01 -2.41168e+00 -3.43344e+00
       L  4.86051e-01 -2.34394e+00 -3.48988e-01
6
# CELL(abcABC):  459.05226   459.05226   459.05226    90.00000    90.00000    90.00000  Step:          64  Bead:       0 x_centroid{angstrom}  cell{atomic_unit}
       C -4.10924e-01 -3.61326e-02  6.28533e-02
       O  8.15244e-01  1.86007e-01 -1.78626e-01
       H  1.34176e+00  9.24577e-01 -5.62624e-01
       H -5.51120e-01 -7.75909e-01  8.32085e-01
       L  6.94041e-01 -2.11005e+00 -3.61380e+00
       L  2.03051e-01 -1.82107e+00 -3.74850e-01
6
# CELL(abcABC):  459.05226   459.05226   459.05226    90.00000    90.00000    90.00000  Step:          65  Bead:       0 x_centroid{angstrom}  cell{atomic_unit}
       C -4.17253e-01 -3.12726e-02  6.15263e-02
       O  8.23771e-01  1.82014e-01 -1.76079e-01
       H  1.27414e+00  9.25322e-01 -5.73746e-01
       H -5.43171e-01 -7.71671e-01  8.18681e-01
       L  5.71075e-01 -1.77258e+00 -3.78265e+00
       L -1.24727e-01 -1.27492e+00 -3.94005e-01
6
# CELL(abcABC):  459.05226   459.05226   459.05226    90.00000    90.00000    90.00000  Step:          66  Bead:       0 x_centroid{angstrom}  cell{atomic_unit}
       C -4.23710e-01 -2.59412e-02  6.00160e-02