6
# CELL(abcABC):  459.05226   459.05226   459.05226    90.00000    90.00000    90.00000  Step:           0  Bead:       0 x_centroid{angstrom}  cell{atomic_unit}
       C -3.39887e-01 -1.13437e-01  8.06659e-02
       O  8.43483e-01  2.62672e-01 -1.81512e-01
       H -7.35799e-02  8.16467e-01 -6.61432e-01
       H -4.30016e-01 -9.65701e-01  7.62278e-01
       L  0.00000e+00  0.00000e+00  0.00000e+00
       L  0.00000e+00  0.00000e+00  0.00000e+00
6
# CELL(abcABC):  459.05226   459.05226   459.05226    90.00000    90.00000    90.00000  Step:           1  Bead:       0 x_centroid{angstrom}  cell{atomic_unit}
       C -3.39046e-01 -1.13925e-01  8.13580e-02
       O  8.42997e-01  2.63246e-01 -1.82005e-01
       H -6.98953e-02  8.13693e-01 -6.58022e-01
       H -4.36192e-01 -9.66258e-01  7.58381e-01
       L -3.47944e-02 -2.57599e-01  1.73571e-01
       L  3.68600e-01  3.00200e-01 -5.18208e-02
6
# CELL(abcABC):  459.05226   459.05226   459.05226    90.00000    90.00000    90.00000  Step:           2  Bead:       0 x_centroid{angstrom}  cell{atomic_unit}
       C -3.38153e-01 -1.14403e-01  8.21261e-02
       O  8.42466e-01  2.63762e-01 -1.82581e-01
       H -6.62288e-02  8.11861e-01 -6.55169e-01
       H -4.42243e-01 -9.66939e-01  7.55411e-01
       L -7.36978e-02 -5.06304e-01  3.23066e-01
       L  7.21159e-01  5.91899e-01 -2.40749e-02
6
# CELL(abcABC):  459.05226   459.05226   459.05226    90.00000    90.00000    90.00000  Step:           3  Bead:       0 x_centroid{angstrom}  cell{atomic_unit}
       C -3.37366e-01 -1.14976e-01  8.30020e-02
       O  8.42070e-01  2.64241e-01 -1.83221e-01
       H -6.33772e-02  8.10908e-01 -6.52965e-01
       H -4.48344e-01 -9.66748e-01  7.52866e-01
       L -6.27321e-02 -8.02963e-01  4.29134e-01
       L  1.01793e+00  8.66292e-01 -7.51945e-04
6
# CELL(abcABC):  459.05226   459.05226   459.05226    90.00000    90.00000    90.00000  Step:           4  Bead:       0 x_centroid{angstrom}  cell{atomic_unit}
       C -3.36553e-01 -1.15564e-01  8.38116e-02
       O  8.41531e-01  2.64745e-01 -1.83736e-01
       H -5.94242e-02  8.09977e-01 -6.52224e-01
       H -4.53575e-01 -9.66791e-01  7.50549e-01
       L -6.87931e-02 -1.11049e+00  5.33984e-01
       L  1.29475e+00  1.11457e+00  7.15604e-02
6
# CELL(abcABC):  459.05226   459.05226   459.05226    90.00000    90.00000    90.00000  Step:           5  Bead:       0 x_centroid{angstrom}  cell{atomic_unit}
       C -3.35918e-01 -1.16231e-01  8.50122e-02
       O  8.40994e-01  2.65273e-01 -1.84559e-01
       H -5.47653e-02  8.10303e-01 -6.51826e-01
       H -4.57393e-01 -9.67527e-01  7.48848e-01
       L -1.01109e-01 -1.36072e+00  6.34598e-01
       L  1.54198e+00  1.31611e+00  9.39190e-02
6
# CELL(abcABC):  459.05226   459.05226   459.05226    90.00000    90.00000    90.00000  Step:           6  Bead:       0 x_centroid{angstrom}  cell{atomic_unit}
       C -3.35517e-01 -1.16870e-01  8.63472e-02
       O  8.40570e-01  2.65876e-01 -1.85421e-01
       H -4.93265e-02  8.09421e-01 -6.51770e-01
       H -4.60960e-01 -9.68601e-01  7.46503e-01
       L -1.88435e-01 -1.52758e+00  7.15987e-01
       L  1.77543e+00  1.51606e+00  1.20669e-01
6
# CELL(abcABC):  459.05226   459.05226   459.05226    90.00000    90.00000    90.00000  Step:           7  Bead:       0 x_centroid{angstrom}  cell{atomic_unit}
       C -3.35351e-01 -1.17393e-01  8.78477e-02
       O  8.40229e-01  2.66358e-01 -1.86380e-01
       H -4.32099e-02  8.08358e-01 -6.53095e-01
       H -4.63726e-01 -9.68977e-01  7.45102e-01
       L -3.17916e-01 -1.72222e+00  7.97168e-01
       L  2.04107e+00  1.73989e+00  1.60287e-01
6
# CELL(abcABC):  459.05226   459.05226   459.05226    90.00000    90.00000    90.00000  Step:           8  Bead:       0 x_centroid{angstrom}  cell{atomic_unit}
       C -3.35637e-01 -1.18071e-01  8.93674e-02
       O  8.40064e-01  2.66873e-01 -1.87289e-01
       H -3.53829e-02  8.09452e-01 -6.55515e-01
       H -4.65608e-01 -9.70175e-01  7.43776e-01
       L -3.95152e-01 -1.91542e+00  9.05918e-01
       L  2.29414e+00  1.93674e+00  1.87718e-01
6
# CELL(abcABC):  459.05226   459.05226   459.05226    90.00000    90.00000    90.00000  Step:           9  Bead:       0 x_centroid{angstrom}  cell{atomic_unit}
       C -3.36117e-01 -1.18715e-01  9.05842e-02
       O  8.39852e-01  2.67328e-01 -1.88016e-01
       H -2.58854e-02  8.11630e-01 -6.58108e-01
       H -4.66078e-01 -9.71920e-01  7.43374e-01
       L -4.83595e-01 -2.06737e+00  9.77065e-01
       L  2.48662e+00  2.13540e+00  1.77029e-01
6
# CELL(abcABC):  459.05226   459.05226   459.05226    90.00000    90.00000    90.00000  Step:          10  Bead:       0 x_centroid{angstrom}  cell{atomic_unit}
       C -3.37023e-01 -1.19373e-01  9.18218e-02
       O  8.39667e-01  2.67918e-01 -1.88770e-01
       H -1.28556e-02  8.13455e-01 -6.61580e-01
       H -4.65414e-01 -9.75295e-01  7.44017e-01
       L -5.80910e-01 -2.24690e+00  1.05276e+00
       L  2.65915e+00  2.34079e+00  1.83213e-01
6
# CELL(abcABC):  459.05226   459.05226   459.05226    90.00000    90.00000    90.00000  Step:          11  Bead:       0 x_centroid{angstrom}  cell{atomic_unit}
       C -3.38481e-01 -1.20045e-01  9.33346e-02
       O  8.39599e-01  2.68583e-01 -1.89778e-01
       H  3.54417e-03  8.16443e-01 -6.65137e-01
       H -4.63387e-01 -9.80858e-01  7.45529e-01
       L -6.74697e-01 -2.39433e+00  1.11896e+00
       L  2.80423e+00  2.55522e+00  1.66645e-01
6
# CELL(abcABC):  459.05226   459.05226   459.05226    90.00000    90.00000    90.00000  Step:          12  Bead:       0 x_centroid{angstrom}  cell{atomic_unit}
       C -3.39996e-01 -1.20804e-01  9.48730e-02
       O  8.39272e-01  2.69363e-01 -1.90866e-01
       H  2.37918e-02  8.18762e-01 -6.68930e-01
       H -4.60451e-01 -9.86556e-01  7.48268e-01
       L -7.66468e-01 -2.51746e+00  1.09752e+00
       L  2.98825e+00  2.74280e+00  1.74543e-01
6
# CELL(abcABC):  459.05226   459.05226   459.05226    90.00000    90.00000    90.00000  Step:          13  Bead:       0 x_centroid{angstrom}  cell{atomic_unit}
       C -3.42013e-01 -1.21547e-01  9.64691e-02
       O  8.38952e-01  2.70038e-01 -1.91975e-01
       H  4.82914e-02  8.22898e-01 -6.72953e-01
       H -4.55883e-01 -9.92599e-01  7.50903e-01
       L -8.15327e-01 -2.56848e+00  1.07579e+00
       L  3.09961e+00  2.88771e+00  1.45424e-01
6
# CELL(abcABC):  459.05226   459.05226   459.05226    90.00000    90.00000    90.00000  Step:          14  Bead:       0 x_centroid{angstrom}  cell{atomic_unit}
       C -3.44388e-01 -1.22527e-01  9.83057e-02
       O  8.38405e-01  2.70858e-01 -1.93226e-01
       H  7.86120e-02  8.28205e-01 -6.77926e-01
       H -4.49228e-01 -9.99319e-01  7.53873e-01
       L -8.25015e-01 -2.57909e+00  1.03162e+00
       L  3.13718e+00  3.06025e+00  1.26970e-01
6
# CELL(abcABC):  459.05226   459.05226   459.05226    90.00000    90.00000    90.00000  Step:          15  Bead:       0 x_centroid{angstrom}  cell{atomic_unit}
       C -3.47186e-01 -1.24115e-01  1.00308e-01
       O  8.37662e-01  2.71974e-01 -1.94479e-01
       H  1.15807e-01  8.35340e-01 -6.85176e-01
       H -4.41308e-01 -1.00535e+00  7.57216e-01
       L -7.97005e-01 -2.56664e+00  9.74762e-01
       L  3.16292e+00  3.21195e+00  7.78886e-02
6
# CELL(abcABC):  459.05226   459.05226   459.05226    90.00000    90.00000    90.00000  Step:          16  Bead:       0 x_centroid{angstrom}  cell{atomic_unit}
       C -3.50496e-01 -1.26376e-01  1.02333e-01
       O  8.36595e-01  2.73467e-01 -1.95804e-01
       H  1.61391e-01  8.45146e-01 -6.92145e-01
       H -4.30527e-01 -1.01197e+00  7.61141e-01
       L -7.55993e-01 -2.50167e+00  8.93434e-01
       L  3.14091e+00  3.26169e+00  4.22584e-02
6
# CELL(abcABC):  459.05226   459.05226   459.05226    90.00000    90.00000    90.00000  Step:          17  Bead:       0 x_centroid{angstrom}  cell{atomic_unit}
       C -3.54478e-01 -1.29012e-01  1.04720e-01
       O  8.35375e-01  2.75117e-01 -1.97246e-01
       H  2.14581e-01  8.57033e-01 -7.01187e-01
       H -4.16929e-01 -1.01869e+00  7.64705e-01
       L -7.01039e-01 -2.41656e+00  8.45355e-01
       L  3.11249e+00  3.27779e+00 -2.44849e-02
6
# CELL(abcABC):  459.05226   459.05226   459.05226    90.00000    90.00000    90.00000  Step:          18  Bead:       0 x_centroid{angstrom}  cell{atomic_unit}
       C -3.59114e-01 -1.32338e-01  1.07261e-01
       O  8.34021e-01  2.76951e-01 -1.98607e-01
       H  2.75201e-01  8.73050e-01 -7.11865e-01
       H -4.00823e-01 -1.02427e+00  7.66760e-01
       L -6.49308e-01 -2.32264e+00  7.81550e-01
       L  3.09328e+00  3.31533e+00 -4.82582e-02
6
# CELL(abcABC):  459.05226   459.05226   459.05226    90.00000    90.00000    90.00000  Step:          19  Bead:       0 x_centroid{angstrom}  cell{atomic_unit}
       C -3.64221e-01 -1.36191e-01  1.10209e-01
       O  8.32417e-01  2.78971e-01 -2.00120e-01
       H  3.43509e-01  8.91383e-01 -7.25570e-01
       H -3.82841e-01 -1.02883e+00  7.69415e-01
       L -5.85832e-01 -2.22342e+00  6.86200e-01
       L  3.09431e+00  3.37119e+00 -8.00559e-02
6
# CELL(abcABC):  459.05226   459.05226   459.05226    90.00000    90.00000    90.00000  Step:          20  Bead:       0 x_centroid{angstrom}  cell{atomic_unit}
       C -3.69647e-01 -1.40282e-01  1.13421e-01
       O  8.30644e-01  2.80861e-01 -2.01578e-01
       H  4.16591e-01  9.12320e-01 -7.42719e-01
       H -3.63190e-01 -1.03108e+00  7.71522e-01
       L -4.50657e-01 -2.07913e+00  5.72848e-01
       L  3.07416e+00  3.34534e+00 -1.12986e-01
6
# CELL(abcABC):  459.05226   459.05226   459.05226    90.00000    90.00000    90.00000  Step:          21  Bead:       0 x_centroid{angstrom}  cell{atomic_unit}
       C -3.75303e-01 -1.44580e-01  1.16901e-01
       O  8.28673e-01  2.82581e-01 -2.03011e-01
       H  4.93395e-01  9.38486e-01 -7.62825e-01
       H -3.41382e-01 -1.03342e+00  7.72954e-01
       L -2.95285e-01 -1.90774e+00  4.87558e-01
       L  3.03724e+00  3.31556e+00 -1.40406e-01
6
# CELL(abcABC):  459.05226   459.05226   459.05226    90.00000    90.00000    90.00000  Step:          22  Bead:       0 x_centroid{angstrom}  cell{atomic_unit}
       C -3.80976e-01 -1.49068e-01  1.20238e-01
       O  8.26442e-01  2.84093e-01 -2.04189e-01
       H  5.73083e-01  9.69647e-01 -7.85089e-01
       H -3.18113e-01 -1.03514e+00  7.74216e-01
       L -1.16371e-01 -1.73912e+00  3.65925e-01
       L  2.94926e+00  3.23603e+00 -1.27679e-01
6
# CELL(abcABC):  459.05226   459.05226   459.05226    90.00000    90.00000    90.00000  Step:          23  Bead:       0 x_centroid{angstrom}  cell{atomic_unit}
       C -3.86727e-01 -1.53358e-01  1.23571e-01
       O  8.23910e-01  2.85297e-01 -2.05287e-01
       H  6.54757e-01  1.00229e+00 -8.08784e-01
       H -2.91129e-01 -1.03586e+00  7.75699e-01
       L  9.24971e-02 -1.49122e+00  2.58326e-01
       L  2.86511e+00  3.14324e+00 -1.75859e-01
6
# CELL(abcABC):  459.05226   459.05226   459.05226    90.00000    90.00000    90.00000  Step:          24  Bead:       0 x_centroid{angstrom}  cell{atomic_unit}
       C -3.92210e-01 -1.57427e-01  1.27015e-01
       O  8.21034e-01  2.86274e-01 -2.06408e-01
       H  7.37216e-01  1.03540e+00 -8.31670e-01
       H -2.62646e-01 -1.03608e+00  7.75439e-01
       L  2.83597e-01 -1.27055e+00  1.08156e-01
       L  2.76794e+00  3.07064e+00 -2.10350e-01
6
# CELL(abcABC):  459.05226   459.05226   459.05226    90.00000    90.00000    90.00000  Step:          25  Bead:       0 x_centroid{angstrom}  cell{atomic_unit}
       C -3.97435e-01 -1.61444e-01  1.30318e-01
       O  8.17871e-01  2.87344e-01 -2.07669e-01
       H  8.18679e-01  1.06497e+00 -8.50860e-01
       H -2.31648e-01 -1.03481e+00  7.75368e-01
       L  4.34378e-01 -1.09268e+00  1.36742e-02
       L  2.63590e+00  2.98252e+00 -2.60042e-01
6
# CELL(abcABC):  459.05226   459.05226   459.05226    90.00000    90.00000    90.00000  Step:          26  Bead:       0 x_centroid{angstrom}  cell{atomic_unit}
       C -4.02508e-01 -1.65255e-01  1.33132e-01
       O  8.14588e-01  2.88568e-01 -2.08911e-01
       H  8.98555e-01  1.08905e+00 -8.65182e-01
       H -1.98932e-01 -1.03294e+00  7.75961e-01
       L  5.47724e-01 -9.55120e-01 -7.48797e-02
       L  2.47295e+00  2.89218e+00 -3.21476e-01
6
# CELL(abcABC):  459.05226   459.05226   459.05226    90.00000    90.00000    90.00000  Step:          27  Bead:       0 x_centroid{angstrom}  cell{atomic_unit}
       C -4.07200e-01 -1.68537e-01  1.35839e-01
       O  8.11250e-01  2.89839e-01 -2.10463e-01
       H  9.74484e-01  1.10591e+00 -8.73220e-01
       H -1.65936e-01 -1.03091e+00  7.76474e-01
       L  6.77273e-01 -7.78033e-01 -1.74487e-01
       L  2.29261e+00  2.79437e+00 -3.85173e-01
6
# CELL(abcABC):  459.05226   459.05226   459.05226    90.00000    90.00000    90.00000  Step:          28  Bead:       0 x_centroid{angstrom}  cell{atomic_unit}
       C -4.11665e-01 -1.71555e-01  1.38249e-01
       O  8.08054e-01  2.91405e-01 -2.12166e-01
       H  1.04414e+00  1.11452e+00 -8.74260e-01
       H -1.31606e-01 -1.02841e+00  7.75878e-01
       L  8.11289e-01 -6.07316e-01 -2.23480e-01
       L  2.05232e+00  2.62664e+00 -4.49165e-01
6
# CELL(abcABC):  459.05226   459.05226   459.05226    90.00000    90.00000    90.00000  Step:          29  Bead:       0 x_centroid{angstrom}  cell{atomic_unit}
       C -4.15537e-01 -1.74663e-01  1.40312e-01
       O  8.04916e-01  2.93557e-01 -2.14064e-01
       H  1.10644e+00  1.11377e+00 -8.67821e-01
       H -9.78913e-02 -1.02479e+00  7.75054e-01
       L  9.57610e-01 -4.09704e-01 -2.55123e-01
       L  1.77031e+00  2.43835e+00 -5.42278e-01
6
# CELL(abcABC):  459.05226   459.05226   459.05226    90.00000    90.00000    90.00000  Step:          30  Bead:       0 x_centroid{angstrom}  cell{atomic_unit}
       C -4.18559e-01 -1.77199e-01  1.42101e-01
       O  8.01753e-01  2.95866e-01 -2.16306e-01
       H  1.16069e+00  1.10292e+00 -8.53078e-01
       H -6.58025e-02 -1.02038e+00  7.74648e-01
       L  1.06375e+00 -2.00218e-01 -2.96930e-01
       L  1.48120e+00  2.23358e+00 -6.27336e-01
6
# CELL(abcABC):  459.05226   459.05226   459.05226    90.00000    90.00000    90.00000  Step:          31  Bead:       0 x_centroid{angstrom}  cell{atomic_unit}
       C -4.21161e-01 -1.79249e-01  1.43234e-01
       O  7.99005e-01  2.98383e-01 -2.18455e-01
       H  1.20510e+00  1.08317e+00 -8.32400e-01
       H -3.54733e-02 -1.01613e+00  7.74687e-01
       L  1.10472e+00 -6.49248e-03 -3.62985e-01
       L  1.21183e+00  2.01305e+00 -7.43366e-01
6
# CELL(abcABC):  459.05226   459.05226   459.05226    90.00000    90.00000    90.00000  Step:          32  Bead:       0 x_centroid{angstrom}  cell{atomic_unit}
       C -4.23030e-01 -1.80818e-01  1.44209e-01
       O  7.96346e-01  3.00916e-01 -2.20813e-01
       H  1.24042e+00  1.05654e+00 -8.06159e-01
       H -6.18414e-03 -1.01097e+00  7.74362e-01
       L  1.15949e+00  1.67823e-01 -4.45867e-01
       L  9.27299e-01  1.75109e+00 -8.52583e-01
6
# CELL(abcABC):  459.05226   459.05226   459.05226    90.00000    90.00000    90.00000  Step:          33  Bead:       0 x_centroid{angstrom}  cell{atomic_unit}
       C -4.24372e-01 -1.82419e-01  1.44760e-01
       O  7.93992e-01  3.03618e-01 -2.23057e-01
       H  1.26667e+00  1.02575e+00 -7.76040e-01
       H  2.10987e-02 -1.00394e+00  7.73356e-01
       L  1.15205e+00  3.13494e-01 -4.82837e-01
       L  6.15042e-01  1.48041e+00 -9.23880e-01
6
# CELL(abcABC):  459.05226   459.05226   459.05226    90.00000    90.00000    90.00000  Step:          34  Bead:       0 x_centroid{angstrom}  cell{atomic_unit}
       C -4.25269e-01 -1.83763e-01  1.45147e-01
       O  7.91960e-01  3.06351e-01 -2.25289e-01
       H  1.28463e+00  9.91173e-01 -7.43103e-01
       H  4.62489e-02 -9.96693e-01  7.71240e-01
       L  1.13612e+00  5.24350e-01 -4.86139e-01
       L  3.08324e-01  1.23087e+00 -9.32173e-01
6
# CELL(abcABC):  459.05226   459.05226   459.05226    90.00000    90.00000    90.00000  Step:          35  Bead:       0 x_centroid{angstrom}  cell{atomic_unit}
       C -4.25428e-01 -1.84614e-01  1.45331e-01
       O  7.90136e-01  3.08729e-01 -2.27404e-01
       H  1.29437e+00  9.55489e-01 -7.09313e-01
       H  6.75369e-02 -9.88634e-01  7.68856e-01
       L  1.11219e+00  7.97877e-01 -5.13200e-01
       L  1.40174e-02  9.94366e-01 -9.46324e-01
6
# CELL(abcABC):  459.05226   459.05226   459.05226    90.00000    90.00000    90.00000  Step:          36  Bead:       0 x_centroid{angstrom}  cell{atomic_unit}
       C -4.25040e-01 -1.85226e-01  1.45141e-01
       O  7.88435e-01  3.10861e-01 -2.29162e-01
       H  1.29915e+00  9.20139e-01 -6.76263e-01
       H  8.53429e-02 -9.79861e-01  7.65981e-01
       L  1.05042e+00  1.08577e+00 -5.09621e-01
       L -2.98788e-01  7.61957e-01 -9.76685e-01
6
# CELL(abcABC):  459.05226   459.05226   459.05226    90.00000    90.00000    90.00000  Step:          37  Bead:       0 x_centroid{angstrom}  cell{atomic_unit}
       C -4.24127e-01 -1.85871e-01  1.44905e-01
       O  7.86666e-01  3.12693e-01 -2.30581e-01
       H  1.30276e+00  8.89865e-01 -6.48461e-01
       H  9.91128e-02 -9.70971e-01  7.63527e-01
       L  9.80967e-01  1.31766e+00 -5.16577e-01
       L -5.75526e-01  5.06523e-01 -9.82741e-01
6
# CELL(abcABC):  459.05226   459.05226   459.05226    90.00000    90.00000    90.00000  Step:          38  Bead:       0 x_centroid{angstrom}  cell{atomic_unit}
       C -4.22387e-01 -1.86382e-01  1.44526e-01
       O  7.84440e-01  3.13638e-01 -2.31458e-01
       H  1.30913e+00  8.71445e-01 -6.27217e-01
       H  1.07538e-01 -9.61434e-01  7.60725e-01
       L  9.18112e-01  1.52469e+00 -5.28519e-01
       L -8.49783e-01  2.28258e-01 -9.60829e-01
6
# CELL(abcABC):  459.05226   459.05226   459.05226    90.00000    90.00000    90.00000  Step:          39  Bead:       0 x_centroid{angstrom}  cell{atomic_unit}
       C -4.19912e-01 -1.86720e-01  1.43729e-01
       O  7.81726e-01  3.13750e-01 -2.31377e-01
       H  1.31983e+00  8.65655e-01 -6.15078e-01
       H  1.10587e-01 -9.53360e-01  7.56796e-01
       L  8.60003e-01  1.74236e+00 -5.69628e-01
       L -1.12562e+00 -5.58349e-02 -9.19959e-01
6
# CELL(abcABC):  459.05226   459.05226   459.05226    90.00000    90.00000    90.00000  Step:          40  Bead:       0 x_centroid{angstrom}  cell{atomic_unit}
       C -4.16685e-01 -1.87215e-01  1.42768e-01
       O  7.78397e-01  3.13242e-01 -2.30588e-01
       H  1.33688e+00  8.72988e-01 -6.12730e-01
       H  1.08110e-01 -9.46657e-01  7.53352e-01
       L  8.28212e-01  1.88646e+00 -5.89210e-01
       L -1.41048e+00 -3.36204e-01 -8.50891e-01
6
# CELL(abcABC):  459.05226   459.05226   459.05226    90.00000    90.00000    90.00000  Step:          41  Bead:       0 x_centroid{angstrom}  cell{atomic_unit}
       C -4.12999e-01 -1.87889e-01  1.41825e-01
       O  7.74808e-01  3.12371e-01 -2.29444e-01
       H  1.35677e+00  8.90567e-01 -6.16616e-01
       H  1.01436e-01 -9.42243e-01  7.50257e-01
       L  8.00751e-01  2.00937e+00 -5.82360e-01
       L -1.68347e+00 -6.97371e-01 -7.69326e-01
6
# CELL(abcABC):  459.05226   459.05226   459.05226    90.00000    90.00000    90.00000  Step:          42  Bead:       0 x_centroid{angstrom}  cell{atomic_unit}
       C -4.08772e-01 -1.88257e-01  1.40834e-01
       O  7.71086e-01  3.10997e-01 -2.28043e-01
       H  1.37705e+00  9.14505e-01 -6.26138e-01
       H  9.00211e-02 -9.39848e-01  7.49336e-01
       L  7.80574e-01  2.10764e+00 -5.73982e-01
       L -1.94945e+00 -1.03512e+00 -7.56482e-01
6
# CELL(abcABC):  459.05226   459.05226   459.05226    90.00000    90.00000    90.00000  Step:          43  Bead:       0 x_centroid{angstrom}  cell{atomic_unit}
       C -4.04311e-01 -1.88276e-01  1.39966e-01
       O  7.67659e-01  3.09358e-01 -2.26734e-01
       H  1.39304e+00  9.40448e-01 -6.38702e-01
       H  7.54101e-02 -9.39440e-01  7.51460e-01
       L  7.70356e-01  2.20578e+00 -5.42929e-01
       L -2.20068e+00 -1.33878e+00 -7.72446e-01
6
# CELL(abcABC):  459.05226   459.05226   459.05226    90.00000    90.00000    90.00000  Step:          44  Bead:       0 x_centroid{angstrom}  cell{atomic_unit}
       C -3.99474e-01 -1.88206e-01  1.39024e-01
       O  7.64566e-01  3.07837e-01 -2.25475e-01
       H  1.40109e+00  9.66216e-01 -6.51015e-01
       H  5.89197e-02 -9.41778e-01  7.54977e-01
       L  7.90674e-01  2.28096e+00 -5.31733e-01
       L -2.41787e+00 -1.62485e+00 -7.12792e-01
6
# CELL(abcABC):  459.05226   459.05226   459.05226    90.00000    90.00000    90.00000  Step:          45  Bead:       0 x_centroid{angstrom}  cell{atomic_unit}
       C -3.94298e-01 -1.88087e-01  1.37930e-01
       O  7.62005e-01  3.06620e-01 -2.24210e-01
       H  1.39924e+00  9.89128e-01 -6.62443e-01
       H  3.98054e-02 -9.46697e-01  7.59358e-01
       L  8.37451e-01  2.34621e+00 -5.40919e-01
       L -2.57400e+00 -1.87180e+00 -6.95059e-01
6
# CELL(abcABC):  459.05226   459.05226   459.05226    90.00000    90.00000    90.00000  Step:          46  Bead:       0 x_centroid{angstrom}  cell{atomic_unit}
       C -3.88921e-01 -1.87734e-01  1.36713e-01
       O  7.60051e-01  3.05747e-01 -2.23127e-01
       H  1.38794e+00  1.00684e+00 -6.72603e-01
       H  1.80964e-02 -9.54663e-01  7.66803e-01
       L  8.87463e-01  2.39798e+00 -5.37765e-01
       L -2.72260e+00 -2.08620e+00 -6.71503e-01
6
# CELL(abcABC):  459.05226   459.05226   459.05226    90.00000    90.00000    90.00000  Step:          47  Bead:       0 x_centroid{angstrom}  cell{atomic_unit}
       C -3.83722e-01 -1.86982e-01  1.35294e-01
       O  7.58955e-01  3.05049e-01 -2.22142e-01
       H  1.36685e+00  1.01980e+00 -6.80159e-01
       H -5.30423e-03 -9.65381e-01  7.75585e-01
       L  9.41853e-01  2.41503e+00 -5.13821e-01
       L -2.86575e+00 -2.33163e+00 -6.01931e-01
6
# CELL(abcABC):  459.05226   459.05226   459.05226    90.00000    90.00000    90.00000  Step:          48  Bead:       0 x_centroid{angstrom}  cell{atomic_unit}
       C -3.78567e-01 -1.85859e-01  1.33441e-01
       O  7.58661e-01  3.04538e-01 -2.21085e-01
       H  1.33508e+00  1.02754e+00 -6.84656e-01
       H -3.02647e-02 -9.78242e-01  7.85336e-01
       L  9.70760e-01  2.35837e+00 -4.66597e-01
       L -2.97585e+00 -2.56382e+00 -5.65552e-01
6
# CELL(abcABC):  459.05226   459.05226   459.05226    90.00000    90.00000    90.00000  Step:          49  Bead:       0 x_centroid{angstrom}  cell{atomic_unit}
       C -3.73425e-01 -1.84384e-01  1.31426e-01
       O  7.58992e-01  3.04285e-01 -2.19970e-01
       H  1.29220e+00  1.03005e+00 -6.87680e-01
       H -5.38186e-02 -9.94092e-01  7.94628e-01
       L  9.74243e-01  2.23499e+00 -3.68537e-01
       L -3.11473e+00 -2.84967e+00 -5.59842e-01
6
# CELL(abcABC):  459.05226   459.05226   459.05226    90.00000    90.00000    90.00000  Step:          50  Bead:       0 x_centroid{angstrom}  cell{atomic_unit}
       C -3.68567e-01 -1.82590e-01  1.29366e-01
       O  7.60079e-01  3.04216e-01 -2.18934e-01
       H  1.24112e+00  1.02764e+00 -6.88848e-01
       H -7.78185e-02 -1.01171e+00  8.03805e-01
       L  9.74407e-01  2.07823e+00 -3.21538e-01
       L -3.23710e+00 -3.14263e+00 -4.55440e-01
6
# CELL(abcABC):  459.05226   459.05226   459.05226    90.00000    90.00000    90.00000  Step:          51  Bead:       0 x_centroid{angstrom}  cell{atomic_unit}
       C -3.63648e-01 -1.80596e-01  1.27323e-01
       O  7.61585e-01  3.04201e-01 -2.17995e-01
       H  1.18191e+00  1.02206e+00 -6.89392e-01
       H -1.01082e-01 -1.02942e+00  8.13688e-01
       L  1.01820e+00  1.89825e+00 -2.47683e-01
       L -3.39129e+00 -3.39304e+00 -3.55863e-01
6
# CELL(abcABC):  459.05226   459.05226   459.05226    90.00000    90.00000    90.00000  Step:          52  Bead:       0 x_centroid{angstrom}  cell{atomic_unit}
       C -3.59080e-01 -1.78389e-01  1.25367e-01
       O  7.63726e-01  3.03991e-01 -2.17133e-01
       H  1.11677e+00  1.01600e+00 -6.90255e-01
       H -1.24277e-01 -1.04612e+00  8.24089e-01
       L  1.03370e+00  1.71958e+00 -1.32207e-01
       L -3.54182e+00 -3.61755e+00 -2.92387e-01
6
# CELL(abcABC):  459.05226   459.05226   459.05226    90.00000    90.00000    90.00000  Step:          53  Bead:       0 x_centroid{angstrom}  cell{atomic_unit}
       C -3.54840e-01 -1.76250e-01  1.23708e-01
       O  7.66323e-01  3.03469e-01 -2.16231e-01
       H  1.04810e+00  1.01447e+00 -6.92893e-01
       H -1.47274e-01 -1.06152e+00  8.32090e-01
       L  1.02414e+00  1.50778e+00 -2.58290e-02
       L -3.69108e+00 -3.86072e+00 -2.37895e-01
6
# CELL(abcABC):  459.05226   459.05226   459.05226    90.00000    90.00000    90.00000  Step:          54  Bead:       0 x_centroid{angstrom}  cell{atomic_unit}
       C -3.51340e-01 -1.74458e-01  1.22216e-01
       O  7.69571e-01  3.02482e-01 -2.14971e-01
       H  9.77781e-01  1.02047e+00 -7.00788e-01
       H -1.70135e-01 -1.07301e+00  8.37680e-01
       L  9.87836e-01  1.32169e+00  5.34389e-02
       L -3.79685e+00 -4.04316e+00 -1.61356e-01
6
# CELL(abcABC):  459.05226   459.05226   459.05226    90.00000    90.00000    90.00000  Step:          55  Bead:       0 x_centroid{angstrom}  cell{atomic_unit}
       C -3.48509e-01 -1.72633e-01  1.20830e-01
       O  7.73434e-01  3.00735e-01 -2.13292e-01
       H  9.05460e-01  1.03498e+00 -7.12950e-01
       H -1.92846e-01 -1.08130e+00  8.39614e-01
       L  9.55439e-01  1.03574e+00  1.44076e-01
       L -3.82598e+00 -4.19260e+00 -6.76946e-02
6
# CELL(abcABC):  459.05226   459.05226   459.05226    90.00000    90.00000    90.00000  Step:          56  Bead:       0 x_centroid{angstrom}  cell{atomic_unit}
       C -3.46128e-01 -1.70776e-01  1.19900e-01
       O  7.77632e-01  2.98242e-01 -2.11475e-01
       H  8.30066e-01  1.05695e+00 -7.30159e-01
       H -2.12404e-01 -1.08561e+00  8.38942e-01
       L  9.07675e-01  7.47788e-01  2.55616e-01
       L -3.86339e+00 -4.31066e+00  3.36472e-02
6
# CELL(abcABC):  459.05226   459.05226   459.05226    90.00000    90.00000    90.00000  Step:          57  Bead:       0 x_centroid{angstrom}  cell{atomic_unit}
       C -3.44527e-01 -1.68988e-01  1.19109e-01
       O  7.82471e-01  2.95255e-01 -2.09389e-01
       H  7.51389e-01  1.08224e+00 -7.50346e-01
       H -2.29578e-01 -1.08457e+00  8.35383e-01
       L  8.39807e-01  3.96597e-01  2.70481e-01
       L -3.86559e+00 -4.39248e+00  1.07358e-01
6
# CELL(abcABC):  459.05226   459.05226   459.05226    90.00000    90.00000    90.00000  Step:          58  Bead:       0 x_centroid{angstrom}  cell{atomic_unit}
       C -3.43659e-01 -1.67340e-01  1.18331e-01
       O  7.87771e-01  2.92261e-01 -2.06971e-01
       H  6.72982e-01  1.10717e+00 -7.71487e-01
       H -2.45634e-01 -1.08140e+00  8.27349e-01
       L  8.12622e-01  2.18512e-02  2.70706e-01
       L -3.84794e+00 -4.37997e+00  2.46750e-01
6
# CELL(abcABC):  459.05226   459.05226   459.05226    90.00000    90.00000    90.00000  Step:          59  Bead:       0 x_centroid{angstrom}  cell{atomic_unit}
       C -3.43187e-01 -1.65706e-01  1.17646e-01
       O  7.93215e-01  2.89253e-01 -2.04714e-01
       H  5.95445e-01  1.12803e+00 -7.88826e-01
       H -2.60133e-01 -1.07380e+00  8.16939e-01
       L  7.68528e-01 -3.49491e-01  2.59699e-01
       L -3.79572e+00 -4.35903e+00  3.97113e-01
6
# CELL(abcABC):  459.05226   459.05226   459.05226    90.00000    90.00000    90.00000  Step:          60  Bead:       0 x_centroid{angstrom}  cell{atomic_unit}
       C -3.43377e-01 -1.64197e-01  1.17247e-01
       O  7.98804e-01  2.86611e-01 -2.02794e-01
       H  5.21776e-01  1.14150e+00 -8.00955e-01
       H -2.72971e-01 -1.06308e+00  8.03308e-01
       L  7.25711e-01 -8.28257e-01  1.97656e-01
       L -3.65904e+00 -4.30671e+00  5.31478e-01
6
# CELL(abcABC):  459.05226   459.05226   459.05226    90.00000    90.00000    90.00000  Step:          61  Bead:       0 x_centroid{angstrom}  cell{atomic_unit}
       C -3.43884e-01 -1.62923e-01  1.17029e-01
       O  8.04193e-01  2.84555e-01 -2.01230e-01
       H  4.52796e-01  1.14641e+00 -8.07361e-01
       H -2.83557e-01 -1.05035e+00  7.87449e-01
       L  6.90036e-01 -1.27911e+00  1.40228e-01
       L -3.51814e+00 -4.20903e+00  6.65434e-01
6
# CELL(abcABC):  459.05226   459.05226   459.05226    90.00000    90.00000    90.00000  Step:          62  Bead:       0 x_centroid{angstrom}  cell{atomic_unit}
       C -3.44622e-01 -1.61942e-01  1.16785e-01
       O  8.09060e-01  2.83341e-01 -2.00001e-01
       H  3.91085e-01  1.14157e+00 -8.07232e-01
       H -2.90382e-01 -1.03780e+00  7.70682e-01
       L  6.60368e-01 -1.67701e+00  8.89746e-02
       L -3.34454e+00 -4.05252e+00  7.95984e-01
6
# CELL(abcABC):  459.05226   459.05226   459.05226    90.00000    90.00000    90.00000  Step:          63  Bead:       0 x_centroid{angstrom}  cell{atomic_unit}
       C -3.45532e-01 -1.61261e-01  1.16974e-01
       O  8.13407e-01  2.83085e-01 -1.99514e-01
       H  3.37062e-01  1.12706e+00 -7.99745e-01
       H -2.94589e-01 -1.02723e+00  7.53164e-01
       L  5.81201e-01 -2.10378e+00  4.38066e-02
       L -3.12876e+00 -3.83430e+00  9.25471e-01
6
# CELL(abcABC):  459.05226   459.05226   459.05226    90.00000    90.00000    90.00000  Step:          64  Bead:       0 x_centroid{angstrom}  cell{atomic_unit}
       C -3.46964e-01 -1.60714e-01  1.17100e-01
       O  8.17449e-01  2.83542e-01 -1.99509e-01
       H  2.92347e-01  1.10409e+00 -7.85324e-01
       H -2.97104e-01 -1.01796e+00  7.37132e-01
       L  5.28700e-01 -2.51270e+00 -1.20645e-02
       L -2.83589e+00 -3.53445e+00  1.02257e+00
6
# CELL(abcABC):  459.05226   459.05226   459.05226    90.00000    90.00000    90.00000  Step:          65  Bead:       0 x_centroid{angstrom}  cell{atomic_unit}
       C -3.49227e-01 -1.60405e-01  1.17088e-01
       O  8.21291e-01  2.84913e-01 -1.99985e-01
       H  2.58843e-01  1.07333e+00 -7.64690e-01
       H -2.97784e-01 -1.01260e+00  7.24186e-01
       L  4.93143e-01 -2.86884e+00 -1.94707e-02
       L -2.51045e+00 -3.26122e+00  1.05367e+00
6
# CELL(abcABC):  459.05226   459.05226   459.05226    90.00000    90.00000    90.00000  Step:          66  Bead:       0 x_centroid{angstrom}  cell{atomic_unit}
       C -3.51799e-01 -1.59933e-01  1.16703e-01