6
# CELL(abcABC):  459.05226   459.05226   459.05226    90.00000    90.00000    90.00000  Step:           0  Bead:       0 x_centroid{angstrom}  cell{atomic_unit}
       C -3.39887e-01 -1.13437e-01  8.06659e-02
       O  8.43483e-01  2.62672e-01 -1.81512e-01
       H -7.35799e-02  8.16467e-01 -6.61432e-01
       H -4.30016e-01 -9.65701e-01  7.62278e-01
       L  0.00000e+00  0.00000e+00  0.00000e+00
       L  0.00000e+00  0.00000e+00  0.00000e+00
6
# CELL(abcABC):  459.05226   459.05226   459.05226    90.00000    90.00000    90.00000  Step:           1  Bead:       0 x_centroid{angstrom}  cell{atomic_unit}
       C -3.42168e-01 -1.12745e-01  7.77944e-02
       O  8.44748e-01  2.61590e-01 -1.78890e-01
       H -8.22935e-02  8.19346e-01 -6.73430e-01
       H -4.14076e-01 -9.60350e-01  7.67422e-01
       L -3.71182e-02  8.67146e-01 -5.09884e-01
       L -1.87785e-01  4.02945e-01 -5.05063e-01
6
# CELL(abcABC):  459.05226   459.05226   459.05226    90.00000    90.00000    90.00000  Step:           2  Bead:       0 x_centroid{angstrom}  cell{atomic_unit}
       C -3.44462e-01 -1.11748e-01  7.45942e-02
       O  8.46020e-01  2.60399e-01 -1.76021e-01
       H -9.10233e-02  8.20774e-01 -6.85070e-01
       H -3.98055e-01 -9.55461e-01  7.72199e-01
       L -7.58299e-02  1.76152e+00 -9.90481e-01
       L -4.00171e-01  7.88463e-01 -1.01815e+00
6
# CELL(abcABC):  459.05226   459.05226   459.05226    90.00000    90.00000    90.00000  Step:           3  Bead:       0 x_centroid{angstrom}  cell{atomic_unit}
       C -3.46718e-01 -1.11024e-01  7.10079e-02
       O  8.47408e-01  2.59459e-01 -1.72915e-01
       H -1.00364e-01  8.21454e-01 -6.96479e-01
       H -3.83727e-01 -9.50517e-01  7.77544e-01
       L -6.90436e-02  2.61102e+00 -1.42470e+00
       L -6.70524e-01  1.18230e+00 -1.52715e+00
6
# CELL(abcABC):  459.05226   459.05226   459.05226    90.00000    90.00000    90.00000  Step:           4  Bead:       0 x_centroid{angstrom}  cell{atomic_unit}
       C -3.48349e-01 -1.10068e-01  6.74128e-02
       O  8.48538e-01  2.58424e-01 -1.69970e-01
       H -1.11741e-01  8.19910e-01 -7.05779e-01
       H -3.70683e-01 -9.44611e-01  7.83471e-01
       L -7.15885e-02  3.45076e+00 -1.85388e+00
       L -9.86025e-01  1.57981e+00 -2.05856e+00
6
# CELL(abcABC):  459.05226   459.05226   459.05226    90.00000    90.00000    90.00000  Step:           5  Bead:       0 x_centroid{angstrom}  cell{atomic_unit}
       C -3.49423e-01 -1.09228e-01  6.38556e-02
       O  8.49471e-01  2.57410e-01 -1.67035e-01
       H -1.24597e-01  8.18936e-01 -7.15009e-01
       H -3.59674e-01 -9.38171e-01  7.88989e-01
       L -4.56316e-02  4.24679e+00 -2.28284e+00
       L -1.32305e+00  1.93482e+00 -2.55141e+00
6
# CELL(abcABC):  459.05226   459.05226   459.05226    90.00000    90.00000    90.00000  Step:           6  Bead:       0 x_centroid{angstrom}  cell{atomic_unit}
       C -3.49931e-01 -1.08420e-01  6.02285e-02
       O  8.50143e-01  2.56540e-01 -1.64236e-01
       H -1.38787e-01  8.15936e-01 -7.21153e-01
       H -3.49939e-01 -9.31557e-01  7.94472e-01
       L  6.84463e-03  4.99799e+00 -2.70742e+00
       L -1.64357e+00  2.21847e+00 -3.11226e+00
6
# CELL(abcABC):  459.05226   459.05226   459.05226    90.00000    90.00000    90.00000  Step:           7  Bead:       0 x_centroid{angstrom}  cell{atomic_unit}
       C -3.50013e-01 -1.07354e-01  5.66344e-02
       O  8.50895e-01  2.55654e-01 -1.61660e-01
       H -1.56172e-01  8.10630e-01 -7.23767e-01
       H -3.43357e-01 -9.25433e-01  7.99498e-01
       L  8.38094e-02  5.68189e+00 -3.09587e+00
       L -2.00349e+00  2.53098e+00 -3.60954e+00
6
# CELL(abcABC):  459.05226   459.05226   459.05226    90.00000    90.00000    90.00000  Step:           8  Bead:       0 x_centroid{angstrom}  cell{atomic_unit}
       C -3.49236e-01 -1.05787e-01  5.29842e-02
       O  8.51413e-01  2.54563e-01 -1.59076e-01
       H -1.76925e-01  8.03083e-01 -7.24978e-01
       H -3.39946e-01 -9.19739e-01  8.03604e-01
       L  1.20402e-01  6.34232e+00 -3.44212e+00
       L -2.30107e+00  2.81483e+00 -4.03851e+00
6
# CELL(abcABC):  459.05226   459.05226   459.05226    90.00000    90.00000    90.00000  Step:           9  Bead:       0 x_centroid{angstrom}  cell{atomic_unit}
       C -3.47665e-01 -1.04160e-01  4.92039e-02
       O  8.51845e-01  2.53449e-01 -1.56480e-01
       H -2.03146e-01  7.92825e-01 -7.23738e-01
       H -3.39126e-01 -9.11677e-01  8.06615e-01
       L  1.10141e-01  6.99991e+00 -3.74557e+00
       L -2.64368e+00  3.01951e+00 -4.48949e+00
6
# CELL(abcABC):  459.05226   459.05226   459.05226    90.00000    90.00000    90.00000  Step:          10  Bead:       0 x_centroid{angstrom}  cell{atomic_unit}
       C -3.45395e-01 -1.02162e-01  4.53582e-02
       O  8.52399e-01  2.52166e-01 -1.53944e-01
       H -2.36331e-01  7.79685e-01 -7.20125e-01
       H -3.41557e-01 -9.02397e-01  8.08930e-01
       L  6.71166e-02  7.62013e+00 -3.99977e+00
       L -3.00861e+00  3.17308e+00 -4.88802e+00
6
# CELL(abcABC):  459.05226   459.05226   459.05226    90.00000    90.00000    90.00000  Step:          11  Bead:       0 x_centroid{angstrom}  cell{atomic_unit}
       C -3.42187e-01 -9.95431e-02  4.11816e-02
       O  8.52963e-01  2.50532e-01 -1.51211e-01
       H -2.78602e-01  7.64845e-01 -7.14801e-01
       H -3.46218e-01 -8.93159e-01  8.10294e-01
       L -2.93740e-02  8.14827e+00 -4.20636e+00
       L -3.35499e+00  3.27562e+00 -5.22056e+00
6
# CELL(abcABC):  459.05226   459.05226   459.05226    90.00000    90.00000    90.00000  Step:          12  Bead:       0 x_centroid{angstrom}  cell{atomic_unit}
       C -3.38111e-01 -9.62868e-02  3.69840e-02
       O  8.53681e-01  2.48464e-01 -1.48338e-01
       H -3.30433e-01  7.47863e-01 -7.09299e-01
       H -3.54142e-01 -8.82414e-01  8.09473e-01
       L -1.27572e-01  8.57649e+00 -4.38874e+00
       L -3.66799e+00  3.30375e+00 -5.54689e+00
6
# CELL(abcABC):  459.05226   459.05226   459.05226    90.00000    90.00000    90.00000  Step:          13  Bead:       0 x_centroid{angstrom}  cell{atomic_unit}
       C -3.33009e-01 -9.25650e-02  3.24455e-02
       O  8.54684e-01  2.46205e-01 -1.45282e-01
       H -3.94187e-01  7.28275e-01 -7.02064e-01
       H -3.66896e-01 -8.71462e-01  8.08064e-01
       L -2.53617e-01  8.90284e+00 -4.51544e+00
       L -3.90477e+00  3.26880e+00 -5.88184e+00
6
# CELL(abcABC):  459.05226   459.05226   459.05226    90.00000    90.00000    90.00000  Step:          14  Bead:       0 x_centroid{angstrom}  cell{atomic_unit}
       C -3.27011e-01 -8.82216e-02  2.78765e-02
       O  8.56174e-01  2.43453e-01 -1.42150e-01
       H -4.71048e-01  7.08183e-01 -6.94480e-01
       H -3.84976e-01 -8.59575e-01  8.05419e-01
       L -3.97948e-01  9.18571e+00 -4.64528e+00
       L -4.11975e+00  3.20528e+00 -6.14095e+00
6
# CELL(abcABC):  459.05226   459.05226   459.05226    90.00000    90.00000    90.00000  Step:          15  Bead:       0 x_centroid{angstrom}  cell{atomic_unit}
       C -3.20038e-01 -8.37720e-02  2.36983e-02
       O  8.58091e-01  2.40805e-01 -1.39199e-01
       H -5.60257e-01  6.84628e-01 -6.88287e-01
       H -4.09138e-01 -8.47104e-01  8.02319e-01
       L -4.63470e-01  9.46101e+00 -4.73819e+00
       L -4.30722e+00  3.11482e+00 -6.31079e+00
6
# CELL(abcABC):  459.05226   459.05226   459.05226    90.00000    90.00000    90.00000  Step:          16  Bead:       0 x_centroid{angstrom}  cell{atomic_unit}
       C -3.11770e-01 -7.88407e-02  1.94458e-02
       O  8.60051e-01  2.37832e-01 -1.36052e-01
       H -6.61440e-01  6.60130e-01 -6.82948e-01
       H -4.37471e-01 -8.34260e-01  7.97805e-01
       L -5.53446e-01  9.65918e+00 -4.79080e+00
       L -4.45381e+00  3.06932e+00 -6.45471e+00
6
# CELL(abcABC):  459.05226   459.05226   459.05226    90.00000    90.00000    90.00000  Step:          17  Bead:       0 x_centroid{angstrom}  cell{atomic_unit}
       C -3.02589e-01 -7.36983e-02  1.52775e-02
       O  8.62157e-01  2.34684e-01 -1.32968e-01
       H -7.71679e-01  6.33330e-01 -6.76262e-01
       H -4.69988e-01 -8.18776e-01  7.91880e-01
       L -5.94019e-01  9.75880e+00 -4.77828e+00
       L -4.54598e+00  2.99950e+00 -6.55607e+00
6
# CELL(abcABC):  459.05226   459.05226   459.05226    90.00000    90.00000    90.00000  Step:          18  Bead:       0 x_centroid{angstrom}  cell{atomic_unit}
       C -2.92800e-01 -6.81676e-02  1.09808e-02
       O  8.64410e-01  2.31456e-01 -1.29900e-01
       H -8.88815e-01  6.03533e-01 -6.66674e-01
       H -5.05230e-01 -8.03623e-01  7.84805e-01
       L -6.40245e-01  9.75207e+00 -4.74475e+00
       L -4.54192e+00  2.96983e+00 -6.60675e+00
6
# CELL(abcABC):  459.05226   459.05226   459.05226    90.00000    90.00000    90.00000  Step:          19  Bead:       0 x_centroid{angstrom}  cell{atomic_unit}
       C -2.82690e-01 -6.21827e-02  6.42828e-03
       O  8.66642e-01  2.28144e-01 -1.26742e-01
       H -1.00724e+00  5.69739e-01 -6.54269e-01
       H -5.42696e-01 -7.88512e-01  7.76498e-01
       L -6.77175e-01  9.61757e+00 -4.72586e+00
       L -4.50852e+00  2.98463e+00 -6.56922e+00
6
# CELL(abcABC):  459.05226   459.05226   459.05226    90.00000    90.00000    90.00000  Step:          20  Bead:       0 x_centroid{angstrom}  cell{atomic_unit}
       C -2.72482e-01 -5.56215e-02  1.58916e-03
       O  8.68757e-01  2.24660e-01 -1.23475e-01
       H -1.12319e+00  5.32734e-01 -6.38900e-01
       H -5.82020e-01 -7.74280e-01  7.66857e-01
       L -6.73263e-01  9.38506e+00 -4.67079e+00
       L -4.41366e+00  3.01918e+00 -6.47876e+00
6
# CELL(abcABC):  459.05226   459.05226   459.05226    90.00000    90.00000    90.00000  Step:          21  Bead:       0 x_centroid{angstrom}  cell{atomic_unit}
       C -2.62729e-01 -4.86497e-02 -3.16486e-03
       O  8.70924e-01  2.21080e-01 -1.20547e-01
       H -1.23425e+00  4.92001e-01 -6.19200e-01
       H -6.21643e-01 -7.59613e-01  7.57217e-01
       L -6.98889e-01  9.00537e+00 -4.57604e+00
       L -4.27221e+00  3.04475e+00 -6.38200e+00
6
# CELL(abcABC):  459.05226   459.05226   459.05226    90.00000    90.00000    90.00000  Step:          22  Bead:       0 x_centroid{angstrom}  cell{atomic_unit}
       C -2.53831e-01 -4.11233e-02 -8.16218e-03
       O  8.73070e-01  2.17410e-01 -1.17678e-01
       H -1.33566e+00  4.46715e-01 -5.95930e-01
       H -6.60441e-01 -7.45523e-01  7.47788e-01
       L -6.46943e-01  8.54700e+00 -4.43968e+00
       L -4.10361e+00  3.07490e+00 -6.20712e+00
6
# CELL(abcABC):  459.05226   459.05226   459.05226    90.00000    90.00000    90.00000  Step:          23  Bead:       0 x_centroid{angstrom}  cell{atomic_unit}
       C -2.46003e-01 -3.36624e-02 -1.31900e-02
       O  8.75313e-01  2.13830e-01 -1.14957e-01
       H -1.42714e+00  4.00817e-01 -5.70524e-01
       H -6.98014e-01 -7.31449e-01  7.38885e-01
       L -5.55014e-01  8.02952e+00 -4.28452e+00
       L -3.88605e+00  3.13164e+00 -5.97379e+00
6
# CELL(abcABC):  459.05226   459.05226   459.05226    90.00000    90.00000    90.00000  Step:          24  Bead:       0 x_centroid{angstrom}  cell{atomic_unit}
       C -2.39493e-01 -2.63365e-02 -1.79164e-02
       O  8.77665e-01  2.10455e-01 -1.12492e-01
       H -1.50682e+00  3.53546e-01 -5.44474e-01
       H -7.33433e-01 -7.17591e-01  7.29732e-01
       L -4.59147e-01  7.47336e+00 -4.08658e+00
       L -3.64102e+00  3.12072e+00 -5.62322e+00
6
# CELL(abcABC):  459.05226   459.05226   459.05226    90.00000    90.00000    90.00000  Step:          25  Bead:       0 x_centroid{angstrom}  cell{atomic_unit}
       C -2.34692e-01 -1.95596e-02 -2.25222e-02
       O  8.80219e-01  2.07396e-01 -1.10130e-01
       H -1.57391e+00  3.07329e-01 -5.18400e-01
       H -7.64310e-01 -7.03281e-01  7.20661e-01
       L -3.57015e-01  6.93111e+00 -3.76902e+00
       L -3.33127e+00  3.11618e+00 -5.21221e+00
6
# CELL(abcABC):  459.05226   459.05226   459.05226    90.00000    90.00000    90.00000  Step:          26  Bead:       0 x_centroid{angstrom}  cell{atomic_unit}
       C -2.31667e-01 -1.30705e-02 -2.67429e-02
       O  8.83077e-01  2.04458e-01 -1.07987e-01
       H -1.62979e+00  2.62904e-01 -4.92825e-01
       H -7.90080e-01 -6.89154e-01  7.10919e-01
       L -2.66546e-01  6.31934e+00 -3.40795e+00
       L -2.99946e+00  3.01703e+00 -4.77369e+00
6
# CELL(abcABC):  459.05226   459.05226   459.05226    90.00000    90.00000    90.00000  Step:          27  Bead:       0 x_centroid{angstrom}  cell{atomic_unit}
       C -2.30407e-01 -7.33486e-03 -3.07568e-02
       O  8.86160e-01  2.01963e-01 -1.05804e-01
       H -1.67456e+00  2.20604e-01 -4.68684e-01
       H -8.09495e-01 -6.75193e-01  6.99490e-01
       L -1.67311e-01  5.67928e+00 -3.05220e+00
       L -2.65293e+00  2.91335e+00 -4.27224e+00
6
# CELL(abcABC):  459.05226   459.05226   459.05226    90.00000    90.00000    90.00000  Step:          28  Bead:       0 x_centroid{angstrom}  cell{atomic_unit}
       C -2.30874e-01 -2.33148e-03 -3.44535e-02
       O  8.89412e-01  1.99710e-01 -1.03678e-01
       H -1.70873e+00  1.82545e-01 -4.46357e-01
       H -8.21629e-01 -6.60523e-01  6.87002e-01
       L -4.82530e-02  4.97921e+00 -2.66976e+00
       L -2.32764e+00  2.76724e+00 -3.78746e+00
6
# CELL(abcABC):  459.05226   459.05226   459.05226    90.00000    90.00000    90.00000  Step:          29  Bead:       0 x_centroid{angstrom}  cell{atomic_unit}
       C -2.33367e-01  1.86999e-03 -3.76226e-02
       O  8.93010e-01  1.97794e-01 -1.01777e-01
       H -1.73222e+00  1.48503e-01 -4.28691e-01
       H -8.25818e-01 -6.45656e-01  6.76366e-01
       L  1.31642e-01  4.26064e+00 -2.21982e+00
       L -1.99259e+00  2.59482e+00 -3.22478e+00
6
# CELL(abcABC):  459.05226   459.05226   459.05226    90.00000    90.00000    90.00000  Step:          30  Bead:       0 x_centroid{angstrom}  cell{atomic_unit}
       C -2.37587e-01  5.37568e-03 -3.98036e-02
       O  8.96847e-01  1.96012e-01 -1.00407e-01
       H -1.74611e+00  1.18934e-01 -4.15944e-01
       H -8.22856e-01 -6.29070e-01  6.67306e-01
       L  3.09493e-01  3.54234e+00 -1.78023e+00
       L -1.60928e+00  2.39941e+00 -2.63113e+00
6
# CELL(abcABC):  459.05226   459.05226   459.05226    90.00000    90.00000    90.00000  Step:          31  Bead:       0 x_centroid{angstrom}  cell{atomic_unit}
       C -2.43268e-01  8.17605e-03 -4.11863e-02
       O  9.00760e-01  1.94474e-01 -9.94338e-02
       H -1.75059e+00  9.44009e-02 -4.07059e-01
       H -8.13063e-01 -6.12982e-01  6.58854e-01
       L  4.37206e-01  2.82779e+00 -1.36547e+00
       L -1.23106e+00  2.15342e+00 -1.96324e+00
6
# CELL(abcABC):  459.05226   459.05226   459.05226    90.00000    90.00000    90.00000  Step:          32  Bead:       0 x_centroid{angstrom}  cell{atomic_unit}
       C -2.50186e-01  1.04400e-02 -4.21479e-02
       O  9.04484e-01  1.93052e-01 -9.86617e-02
       H -1.74506e+00  7.51254e-02 -4.03432e-01
       H -7.95558e-01 -5.97536e-01  6.53798e-01
       L  6.10330e-01  2.09586e+00 -9.15891e-01
       L -8.72785e-01  1.82729e+00 -1.25316e+00
6
# CELL(abcABC):  459.05226   459.05226   459.05226    90.00000    90.00000    90.00000  Step:          33  Bead:       0 x_centroid{angstrom}  cell{atomic_unit}
       C -2.58208e-01  1.22410e-02 -4.30177e-02
       O  9.08178e-01  1.91900e-01 -9.79503e-02
       H -1.73131e+00  5.96091e-02 -4.05225e-01
       H -7.72646e-01 -5.84575e-01  6.54012e-01
       L  7.53628e-01  1.31408e+00 -4.80520e-01
       L -4.96933e-01  1.49258e+00 -4.91196e-01
6
# CELL(abcABC):  459.05226   459.05226   459.05226    90.00000    90.00000    90.00000  Step:          34  Bead:       0 x_centroid{angstrom}  cell{atomic_unit}
       C -2.66782e-01  1.35129e-02 -4.34753e-02
       O  9.11463e-01  1.91006e-01 -9.75860e-02
       H -1.70872e+00  5.01876e-02 -4.11751e-01
       H -7.45517e-01 -5.75524e-01  6.59566e-01
       L  9.64828e-01  5.12045e-01  1.17406e-02
       L -1.27605e-01  1.19508e+00  1.95691e-01
6
# CELL(abcABC):  459.05226   459.05226   459.05226    90.00000    90.00000    90.00000  Step:          35  Bead:       0 x_centroid{angstrom}  cell{atomic_unit}
       C -2.75938e-01  1.47661e-02 -4.35268e-02
       O  9.14325e-01  1.90042e-01 -9.76085e-02
       H -1.67578e+00  4.61974e-02 -4.23325e-01
       H -7.15096e-01 -5.70585e-01  6.71481e-01
       L  1.17855e+00 -2.74994e-01  5.04363e-01
       L  2.32032e-01  9.11900e-01  8.61157e-01
6
# CELL(abcABC):  459.05226   459.05226   459.05226    90.00000    90.00000    90.00000  Step:          36  Bead:       0 x_centroid{angstrom}  cell{atomic_unit}
       C -2.85191e-01  1.56902e-02 -4.33585e-02
       O  9.16434e-01  1.89300e-01 -9.79474e-02
       H -1.63196e+00  4.79793e-02 -4.39968e-01
       H -6.82490e-01 -5.70996e-01  6.90898e-01
       L  1.38945e+00 -1.11069e+00  9.43728e-01
       L  6.39854e-01  6.31384e-01  1.52300e+00
6
# CELL(abcABC):  459.05226   459.05226   459.05226    90.00000    90.00000    90.00000  Step:          37  Bead:       0 x_centroid{angstrom}  cell{atomic_unit}
       C -2.94543e-01  1.62310e-02 -4.29242e-02
       O  9.17922e-01  1.88751e-01 -9.86803e-02
       H -1.57833e+00  5.50737e-02 -4.60814e-01
       H -6.48624e-01 -5.75240e-01  7.17582e-01
       L  1.61101e+00 -1.87111e+00  1.32511e+00
       L  1.02761e+00  3.46726e-01  2.28193e+00
6
# CELL(abcABC):  459.05226   459.05226   459.05226    90.00000    90.00000    90.00000  Step:          38  Bead:       0 x_centroid{angstrom}  cell{atomic_unit}
       C -3.03821e-01  1.66046e-02 -4.19138e-02
       O  9.18539e-01  1.88425e-01 -9.99329e-02
       H -1.51383e+00  6.49958e-02 -4.85562e-01
       H -6.12697e-01 -5.83907e-01  7.49571e-01
       L  1.81013e+00 -2.56796e+00  1.72575e+00
       L  1.43320e+00  4.19609e-02  2.98750e+00
6
# CELL(abcABC):  459.05226   459.05226   459.05226    90.00000    90.00000    90.00000  Step:          39  Bead:       0 x_centroid{angstrom}  cell{atomic_unit}
       C -3.12892e-01  1.63643e-02 -4.09329e-02
       O  9.18315e-01  1.88467e-01 -1.01348e-01
       H -1.43883e+00  7.92748e-02 -5.13475e-01
       H -5.76310e-01 -5.95435e-01  7.87702e-01
       L  1.90894e+00 -3.21417e+00  2.09476e+00
       L  1.81171e+00 -3.19434e-01  3.63856e+00
6
# CELL(abcABC):  459.05226   459.05226   459.05226    90.00000    90.00000    90.00000  Step:          40  Bead:       0 x_centroid{angstrom}  cell{atomic_unit}
       C -3.21445e-01  1.58835e-02 -3.94152e-02
       O  9.17225e-01  1.88598e-01 -1.03052e-01
       H -1.35528e+00  9.58637e-02 -5.45549e-01
       H -5.40896e-01 -6.07813e-01  8.28211e-01
       L  2.02249e+00 -3.81679e+00  2.46283e+00
       L  2.17405e+00 -7.50077e-01  4.23246e+00
6
# CELL(abcABC):  459.05226   459.05226   459.05226    90.00000    90.00000    90.00000  Step:          41  Bead:       0 x_centroid{angstrom}  cell{atomic_unit}
       C -3.29424e-01  1.47675e-02 -3.74641e-02
       O  9.15397e-01  1.88954e-01 -1.04956e-01
       H -1.26561e+00  1.16081e-01 -5.80091e-01
       H -5.06692e-01 -6.19859e-01  8.69262e-01
       L  2.08622e+00 -4.38361e+00  2.78499e+00
       L  2.53251e+00 -1.14416e+00  4.77066e+00
6
# CELL(abcABC):  459.05226   459.05226   459.05226    90.00000    90.00000    90.00000  Step:          42  Bead:       0 x_centroid{angstrom}  cell{atomic_unit}
       C -3.36269e-01  1.33130e-02 -3.49716e-02
       O  9.12723e-01  1.89377e-01 -1.06931e-01
       H -1.17402e+00  1.38349e-01 -6.18254e-01
       H -4.74467e-01 -6.31049e-01  9.08612e-01
       L  2.11934e+00 -4.87359e+00  3.09353e+00
       L  2.85407e+00 -1.48610e+00  5.30686e+00
6
# CELL(abcABC):  459.05226   459.05226   459.05226    90.00000    90.00000    90.00000  Step:          43  Bead:       0 x_centroid{angstrom}  cell{atomic_unit}
       C -3.41484e-01  1.11722e-02 -3.12111e-02
       O  9.09172e-01  1.89951e-01 -1.09302e-01
       H -1.08563e+00  1.62696e-01 -6.62508e-01
       H -4.44540e-01 -6.38616e-01  9.45270e-01
       L  2.17909e+00 -5.26204e+00  3.37807e+00
       L  3.14352e+00 -1.81331e+00  5.79350e+00
6
# CELL(abcABC):  459.05226   459.05226   459.05226    90.00000    90.00000    90.00000  Step:          44  Bead:       0 x_centroid{angstrom}  cell{atomic_unit}
       C -3.44515e-01  8.24305e-03 -2.59941e-02
       O  9.04725e-01  1.90679e-01 -1.11879e-01
       H -1.00394e+00  1.90155e-01 -7.14512e-01
       H -4.19704e-01 -6.42380e-01  9.75689e-01
       L  2.26788e+00 -5.60205e+00  3.56685e+00
       L  3.42113e+00 -2.11944e+00  6.19815e+00
6
# CELL(abcABC):  459.05226   459.05226   459.05226    90.00000    90.00000    90.00000  Step:          45  Bead:       0 x_centroid{angstrom}  cell{atomic_unit}
       C -3.45461e-01  4.58866e-03 -1.95803e-02
       O  8.99701e-01  1.91512e-01 -1.14513e-01
       H -9.32539e-01  2.20886e-01 -7.74453e-01
       H -4.00294e-01 -6.42458e-01  1.00078e+00
       L  2.39799e+00 -5.84234e+00  3.68110e+00
       L  3.64126e+00 -2.47183e+00  6.51884e+00
6
# CELL(abcABC):  459.05226   459.05226   459.05226    90.00000    90.00000    90.00000  Step:          46  Bead:       0 x_centroid{angstrom}  cell{atomic_unit}
       C -3.44170e-01  5.59883e-04 -1.15438e-02
       O  8.93870e-01  1.92154e-01 -1.17484e-01
       H -8.70713e-01  2.55921e-01 -8.41459e-01
       H -3.85084e-01 -6.39452e-01  1.01905e+00
       L  2.49987e+00 -6.00315e+00  3.76966e+00
       L  3.81875e+00 -2.73374e+00  6.68108e+00
6
# CELL(abcABC):  459.05226   459.05226   459.05226    90.00000    90.00000    90.00000  Step:          47  Bead:       0 x_centroid{angstrom}  cell{atomic_unit}
       C -3.40961e-01 -3.54233e-03 -2.37391e-03
       O  8.87392e-01  1.92583e-01 -1.20691e-01
       H -8.16203e-01  2.90238e-01 -9.12307e-01
       H -3.75100e-01 -6.31535e-01  1.03151e+00
       L  2.53965e+00 -6.09576e+00  3.77573e+00
       L  3.94653e+00 -2.93468e+00  6.74144e+00
6
# CELL(abcABC):  459.05226   459.05226   459.05226    90.00000    90.00000    90.00000  Step:          48  Bead:       0 x_centroid{angstrom}  cell{atomic_unit}
       C -3.36004e-01 -7.86120e-03  7.18543e-03
       O  8.80379e-01  1.92931e-01 -1.23745e-01
       H -7.66945e-01  3.24360e-01 -9.83169e-01
       H -3.72182e-01 -6.19564e-01  1.03695e+00
       L  2.55075e+00 -6.13682e+00  3.70954e+00
       L  4.05508e+00 -3.16306e+00  6.77376e+00
6
# CELL(abcABC):  459.05226   459.05226   459.05226    90.00000    90.00000    90.00000  Step:          49  Bead:       0 x_centroid{angstrom}  cell{atomic_unit}
       C -3.29502e-01 -1.22780e-02  1.66936e-02
       O  8.72849e-01  1.93345e-01 -1.26640e-01
       H -7.22198e-01  3.55442e-01 -1.04829e+00
       H -3.74897e-01 -6.04470e-01  1.03477e+00
       L  2.57364e+00 -6.13616e+00  3.67285e+00
       L  4.08888e+00 -3.38708e+00  6.71201e+00
6
# CELL(abcABC):  459.05226   459.05226   459.05226    90.00000    90.00000    90.00000  Step:          50  Bead:       0 x_centroid{angstrom}  cell{atomic_unit}
       C -3.21858e-01 -1.67016e-02  2.59321e-02
       O  8.65280e-01  1.93751e-01 -1.29492e-01
       H -6.82866e-01  3.83684e-01 -1.10501e+00
       H -3.85182e-01 -5.86355e-01  1.02678e+00
       L  2.55582e+00 -6.05351e+00  3.61388e+00
       L  4.10326e+00 -3.63403e+00  6.58101e+00
6
# CELL(abcABC):  459.05226   459.05226   459.05226    90.00000    90.00000    90.00000  Step:          51  Bead:       0 x_centroid{angstrom}  cell{atomic_unit}
       C -3.13237e-01 -2.07723e-02  3.49966e-02
       O  8.57709e-01  1.94049e-01 -1.32412e-01
       H -6.48739e-01  4.07748e-01 -1.15319e+00
       H -4.01857e-01 -5.66594e-01  1.01348e+00
       L  2.51200e+00 -5.87750e+00  3.48059e+00
       L  4.14447e+00 -3.88983e+00  6.40160e+00
6
# CELL(abcABC):  459.05226   459.05226   459.05226    90.00000    90.00000    90.00000  Step:          52  Bead:       0 x_centroid{angstrom}  cell{atomic_unit}
       C -3.03665e-01 -2.48182e-02  4.35070e-02
       O  8.50190e-01  1.94621e-01 -1.35419e-01
       H -6.21208e-01  4.26039e-01 -1.19055e+00
       H -4.24125e-01 -5.45716e-01  9.97380e-01
       L  2.51132e+00 -5.73016e+00  3.30815e+00
       L  4.21002e+00 -4.10635e+00  6.13685e+00
6
# CELL(abcABC):  459.05226   459.05226   459.05226    90.00000    90.00000    90.00000  Step:          53  Bead:       0 x_centroid{angstrom}  cell{atomic_unit}
       C -2.93409e-01 -2.84560e-02  5.08868e-02
       O  8.43075e-01  1.95129e-01 -1.38075e-01
       H -6.01242e-01  4.39125e-01 -1.21752e+00
       H -4.53390e-01 -5.23533e-01  9.78871e-01
       L  2.50318e+00 -5.54191e+00  3.07084e+00
       L  4.25516e+00 -4.27365e+00  5.82549e+00
6
# CELL(abcABC):  459.05226   459.05226   459.05226    90.00000    90.00000    90.00000  Step:          54  Bead:       0 x_centroid{angstrom}  cell{atomic_unit}
       C -2.82672e-01 -3.16415e-02  5.69809e-02
       O  8.36358e-01  1.95623e-01 -1.40577e-01
       H -5.87857e-01  4.47927e-01 -1.23334e+00
       H -4.88096e-01 -5.02256e-01  9.62180e-01
       L  2.52302e+00 -5.32043e+00  2.77224e+00
       L  4.24295e+00 -4.42559e+00  5.42068e+00
6
# CELL(abcABC):  459.05226   459.05226   459.05226    90.00000    90.00000    90.00000  Step:          55  Bead:       0 x_centroid{angstrom}  cell{atomic_unit}
       C -2.71835e-01 -3.42709e-02  6.14993e-02
       O  8.30357e-01  1.96159e-01 -1.42745e-01
       H -5.81811e-01  4.52043e-01 -1.23843e+00
       H -5.28008e-01 -4.83660e-01  9.48233e-01
       L  2.52042e+00 -5.03061e+00  2.43441e+00
       L  4.20975e+00 -4.51567e+00  5.01319e+00
6
# CELL(abcABC):  459.05226   459.05226   459.05226    90.00000    90.00000    90.00000  Step:          56  Bead:       0 x_centroid{angstrom}  cell{atomic_unit}
       C -2.61413e-01 -3.60446e-02  6.44507e-02
       O  8.25524e-01  1.96599e-01 -1.44677e-01
       H -5.84008e-01  4.50478e-01 -1.23342e+00
       H -5.73225e-01 -4.68093e-01  9.39214e-01
       L  2.50279e+00 -4.67882e+00  2.02603e+00
       L  4.12539e+00 -4.59253e+00  4.53178e+00
6
# CELL(abcABC):  459.05226   459.05226   459.05226    90.00000    90.00000    90.00000  Step:          57  Bead:       0 x_centroid{angstrom}  cell{atomic_unit}
       C -2.51886e-01 -3.68463e-02  6.57471e-02
       O  8.22117e-01  1.96810e-01 -1.46146e-01
       H -5.92812e-01  4.43780e-01 -1.21949e+00
       H -6.23785e-01 -4.55409e-01  9.33674e-01
       L  2.47402e+00 -4.26731e+00  1.59174e+00
       L  3.99874e+00 -4.60105e+00  4.03021e+00
6
# CELL(abcABC):  459.05226   459.05226   459.05226    90.00000    90.00000    90.00000  Step:          58  Bead:       0 x_centroid{angstrom}  cell{atomic_unit}
       C -2.43302e-01 -3.71451e-02  6.55624e-02
       O  8.20226e-01  1.97153e-01 -1.47229e-01
       H -6.09309e-01  4.30850e-01 -1.19684e+00
       H -6.79473e-01 -4.44640e-01  9.30929e-01
       L  2.44462e+00 -3.79715e+00  1.11656e+00
       L  3.86150e+00 -4.56957e+00  3.54504e+00
6
# CELL(abcABC):  459.05226   459.05226   459.05226    90.00000    90.00000    90.00000  Step:          59  Bead:       0 x_centroid{angstrom}  cell{atomic_unit}
       C -2.36273e-01 -3.71862e-02  6.42336e-02
       O  8.20172e-01  1.97686e-01 -1.48125e-01
       H -6.33752e-01  4.13415e-01 -1.16523e+00
       H -7.37784e-01 -4.35501e-01  9.29926e-01
       L  2.36761e+00 -3.28976e+00  6.41351e-01
       L  3.70140e+00 -4.48005e+00  3.01598e+00
6
# CELL(abcABC):  459.05226   459.05226   459.05226    90.00000    90.00000    90.00000  Step:          60  Bead:       0 x_centroid{angstrom}  cell{atomic_unit}
       C -2.31169e-01 -3.70836e-02  6.14416e-02
       O  8.21943e-01  1.98455e-01 -1.48541e-01
       H -6.63189e-01  3.90647e-01 -1.12528e+00
       H -7.97121e-01 -4.26526e-01  9.30374e-01
       L  2.25235e+00 -2.78440e+00  1.43485e-01
       L  3.52088e+00 -4.31623e+00  2.53889e+00
6
# CELL(abcABC):  459.05226   459.05226   459.05226    90.00000    90.00000    90.00000  Step:          61  Bead:       0 x_centroid{angstrom}  cell{atomic_unit}
       C -2.28200e-01 -3.69518e-02  5.80651e-02
       O  8.25645e-01  1.99416e-01 -1.48916e-01
       H -6.98194e-01  3.63656e-01 -1.07858e+00
       H -8.56040e-01 -4.16732e-01  9.30406e-01
       L  2.04314e+00 -2.23871e+00 -3.77373e-01
       L  3.32437e+00 -4.16552e+00  2.06209e+00
6
# CELL(abcABC):  459.05226   459.05226   459.05226    90.00000    90.00000    90.00000  Step:          62  Bead:       0 x_centroid{angstrom}  cell{atomic_unit}
       C -2.27509e-01 -3.66768e-02  5.38842e-02
       O  8.31209e-01  2.00406e-01 -1.49019e-01
       H -7.40080e-01  3.32482e-01 -1.02319e+00
       H -9.10484e-01 -4.04965e-01  9.27016e-01
       L  1.82979e+00 -1.67367e+00 -8.76049e-01
       L  3.11044e+00 -3.96881e+00  1.54937e+00
6
# CELL(abcABC):  459.05226   459.05226   459.05226    90.00000    90.00000    90.00000  Step:          63  Bead:       0 x_centroid{angstrom}  cell{atomic_unit}
       C -2.29158e-01 -3.64476e-02  4.87935e-02
       O  8.38489e-01  2.01524e-01 -1.48801e-01
       H -7.86624e-01  2.97324e-01 -9.60715e-01
       H -9.59593e-01 -3.90736e-01  9.22284e-01
       L  1.64494e+00 -1.12631e+00 -1.37390e+00
       L  2.84042e+00 -3.67771e+00  1.05351e+00
6
# CELL(abcABC):  459.05226   459.05226   459.05226    90.00000    90.00000    90.00000  Step:          64  Bead:       0 x_centroid{angstrom}  cell{atomic_unit}
       C -2.33059e-01 -3.61236e-02  4.33085e-02
       O  8.47217e-01  2.02691e-01 -1.48454e-01
       H -8.35805e-01  2.58654e-01 -8.92367e-01
       H -1.00223e+00 -3.74967e-01  9.14371e-01
       L  1.46481e+00 -5.53987e-01 -1.88939e+00
       L  2.58782e+00 -3.31151e+00  5.17913e-01
6
# CELL(abcABC):  459.05226   459.05226   459.05226    90.00000    90.00000    90.00000  Step:          65  Bead:       0 x_centroid{angstrom}  cell{atomic_unit}
       C -2.39144e-01 -3.58666e-02  3.74625e-02
       O  8.57175e-01  2.03997e-01 -1.47916e-01
       H -8.86564e-01  2.17397e-01 -8.20967e-01
       H -1.03679e+00 -3.58011e-01  9.04643e-01
       L  1.28218e+00 -3.39987e-02 -2.37031e+00
       L  2.33461e+00 -2.90510e+00 -1.66415e-02
6
# CELL(abcABC):  459.05226   459.05226   459.05226    90.00000    90.00000    90.00000  Step:          66  Bead:       0 x_centroid{angstrom}  cell{atomic_unit}
       C -2.47529e-01 -3.55188e-02  3.16328e-02