6
# CELL(abcABC):  459.05226   459.05226   459.05226    90.00000    90.00000    90.00000  Step:           0  Bead:       0 x_centroid{angstrom}  cell{atomic_unit}
       C -3.39887e-01 -1.13437e-01  8.06659e-02
       O  8.43483e-01  2.62672e-01 -1.81512e-01
       H -7.35799e-02  8.16467e-01 -6.61432e-01
       H -4.30016e-01 -9.65701e-01  7.62278e-01
       L  0.00000e+00  0.00000e+00  0.00000e+00
       L  0.00000e+00  0.00000e+00  0.00000e+00
6
# CELL(abcABC):  459.05226   459.05226   459.05226    90.00000    90.00000    90.00000  Step:           1  Bead:       0 x_centroid{angstrom}  cell{atomic_unit}
       C -3.37317e-01 -1.12056e-01  7.82081e-02
       O  8.41929e-01  2.62180e-01 -1.78912e-01
       H -7.88958e-02  8.10540e-01 -6.69237e-01
       H -4.30759e-01 -9.68631e-01  7.58150e-01
       L -1.30225e-01  4.50590e-01 -1.26911e-01
       L  3.24235e-01 -7.21669e-02  3.10796e-02
6
# CELL(abcABC):  459.05226   459.05226   459.05226    90.00000    90.00000    90.00000  Step:           2  Bead:       0 x_centroid{angstrom}  cell{atomic_unit}
       C -3.34976e-01 -1.10695e-01  7.56869e-02
       O  8.40594e-01  2.61737e-01 -1.76280e-01
       H -8.51384e-02  8.03983e-01 -6.76473e-01
       H -4.31341e-01 -9.71499e-01  7.53696e-01
       L -2.68112e-01  9.59870e-01 -2.51225e-01
       L  6.72525e-01 -1.51362e-01  5.79301e-02
6
# CELL(abcABC):  459.05226   459.05226   459.05226    90.00000    90.00000    90.00000  Step:           3  Bead:       0 x_centroid{angstrom}  cell{atomic_unit}
       C -3.32769e-01 -1.09504e-01  7.32267e-02
       O  8.39506e-01  2.61309e-01 -1.73631e-01
       H -9.31377e-02  7.97747e-01 -6.84822e-01
       H -4.32478e-01 -9.72844e-01  7.49348e-01
       L -4.22290e-01  1.38948e+00 -3.36087e-01
       L  1.03083e+00 -2.51866e-01  9.32012e-02
6
# CELL(abcABC):  459.05226   459.05226   459.05226    90.00000    90.00000    90.00000  Step:           4  Bead:       0 x_centroid{angstrom}  cell{atomic_unit}
       C -3.30782e-01 -1.08192e-01  7.06326e-02
       O  8.38659e-01  2.60768e-01 -1.70832e-01
       H -1.01943e-01  7.91363e-01 -6.92625e-01
       H -4.33989e-01 -9.73747e-01  7.43620e-01
       L -5.90624e-01  1.87228e+00 -4.09551e-01
       L  1.36224e+00 -2.91173e-01  1.90160e-01
6
# CELL(abcABC):  459.05226   459.05226   459.05226    90.00000    90.00000    90.00000  Step:           5  Bead:       0 x_centroid{angstrom}  cell{atomic_unit}
       C -3.28878e-01 -1.06914e-01  6.80791e-02
       O  8.37965e-01  2.60238e-01 -1.67966e-01
       H -1.12174e-01  7.83812e-01 -6.99697e-01
       H -4.35484e-01 -9.73232e-01  7.35633e-01
       L -7.80739e-01  2.34624e+00 -4.94214e-01
       L  1.65611e+00 -3.53315e-01  2.40910e-01
6
# CELL(abcABC):  459.05226   459.05226   459.05226    90.00000    90.00000    90.00000  Step:           6  Bead:       0 x_centroid{angstrom}  cell{atomic_unit}
       C -3.26786e-01 -1.05488e-01  6.53311e-02
       O  8.37441e-01  2.59702e-01 -1.64936e-01
       H -1.26381e-01  7.75432e-01 -7.06655e-01
       H -4.37940e-01 -9.73535e-01  7.27262e-01
       L -9.91231e-01  2.77076e+00 -5.73206e-01
       L  1.93672e+00 -4.32790e-01  2.90527e-01
6
# CELL(abcABC):  459.05226   459.05226   459.05226    90.00000    90.00000    90.00000  Step:           7  Bead:       0 x_centroid{angstrom}  cell{atomic_unit}
       C -3.24985e-01 -1.03918e-01  6.26791e-02
       O  8.37516e-01  2.59108e-01 -1.62011e-01
       H -1.45329e-01  7.66859e-01 -7.13392e-01
       H -4.41668e-01 -9.74421e-01  7.19160e-01
       L -1.15765e+00  3.16545e+00 -6.50534e-01
       L  2.14577e+00 -4.66351e-01  3.95536e-01
6
# CELL(abcABC):  459.05226   459.05226   459.05226    90.00000    90.00000    90.00000  Step:           8  Bead:       0 x_centroid{angstrom}  cell{atomic_unit}
       C -3.23255e-01 -1.02447e-01  5.95727e-02
       O  8.38138e-01  2.58641e-01 -1.58775e-01
       H -1.71496e-01  7.57049e-01 -7.20934e-01
       H -4.46001e-01 -9.74954e-01  7.12336e-01
       L -1.33831e+00  3.59098e+00 -7.30380e-01
       L  2.36684e+00 -4.85827e-01  4.93958e-01
6
# CELL(abcABC):  459.05226   459.05226   459.05226    90.00000    90.00000    90.00000  Step:           9  Bead:       0 x_centroid{angstrom}  cell{atomic_unit}
       C -3.21711e-01 -1.00699e-01  5.64205e-02
       O  8.39420e-01  2.57986e-01 -1.55587e-01
       H -2.04142e-01  7.46843e-01 -7.27716e-01
       H -4.52127e-01 -9.75387e-01  7.06086e-01
       L -1.50636e+00  3.98016e+00 -7.94323e-01
       L  2.56972e+00 -5.07251e-01  5.28270e-01
6
# CELL(abcABC):  459.05226   459.05226   459.05226    90.00000    90.00000    90.00000  Step:          10  Bead:       0 x_centroid{angstrom}  cell{atomic_unit}
       C -3.19999e-01 -9.85760e-02  5.32210e-02
       O  8.41165e-01  2.57054e-01 -1.52417e-01
       H -2.45899e-01  7.36093e-01 -7.33368e-01
       H -4.58469e-01 -9.75302e-01  6.99610e-01
       L -1.66798e+00  4.33770e+00 -8.98234e-01
       L  2.72099e+00 -5.50204e-01  5.29018e-01
6
# CELL(abcABC):  459.05226   459.05226   459.05226    90.00000    90.00000    90.00000  Step:          11  Bead:       0 x_centroid{angstrom}  cell{atomic_unit}
       C -3.18062e-01 -9.60621e-02  4.97243e-02
       O  8.43535e-01  2.55831e-01 -1.48966e-01
       H -2.98496e-01  7.23502e-01 -7.38662e-01
       H -4.66564e-01 -9.73431e-01  6.91890e-01
       L -1.84315e+00  4.69462e+00 -1.02181e+00
       L  2.89664e+00 -5.89482e-01  4.78530e-01
6
# CELL(abcABC):  459.05226   459.05226   459.05226    90.00000    90.00000    90.00000  Step:          12  Bead:       0 x_centroid{angstrom}  cell{atomic_unit}
       C -3.15938e-01 -9.31315e-02  4.57042e-02
       O  8.46541e-01  2.54285e-01 -1.45124e-01
       H -3.63047e-01  7.09249e-01 -7.43177e-01
       H -4.75072e-01 -9.69719e-01  6.83461e-01
       L -1.96799e+00  5.03083e+00 -1.17771e+00
       L  3.08688e+00 -6.22648e-01  3.71524e-01
6
# CELL(abcABC):  459.05226   459.05226   459.05226    90.00000    90.00000    90.00000  Step:          13  Bead:       0 x_centroid{angstrom}  cell{atomic_unit}
       C -3.12773e-01 -8.96201e-02  4.10325e-02
       O  8.49841e-01  2.52378e-01 -1.40794e-01
       H -4.41224e-01  6.92305e-01 -7.46016e-01
       H -4.87077e-01 -9.64499e-01  6.73396e-01
       L -2.01387e+00  5.33822e+00 -1.32226e+00
       L  3.28517e+00 -6.70882e-01  2.35931e-01
6
# CELL(abcABC):  459.05226   459.05226   459.05226    90.00000    90.00000    90.00000  Step:          14  Bead:       0 x_centroid{angstrom}  cell{atomic_unit}
       C -3.08742e-01 -8.56451e-02  3.58692e-02
       O  8.53495e-01  2.50274e-01 -1.36080e-01
       H -5.32834e-01  6.72413e-01 -7.47484e-01
       H -5.01635e-01 -9.58662e-01  6.61724e-01
       L -2.01512e+00  5.59343e+00 -1.45089e+00
       L  3.53628e+00 -7.59614e-01  7.06524e-02
6
# CELL(abcABC):  459.05226   459.05226   459.05226    90.00000    90.00000    90.00000  Step:          15  Bead:       0 x_centroid{angstrom}  cell{atomic_unit}
       C -3.03931e-01 -8.09385e-02  3.02711e-02
       O  8.57392e-01  2.47670e-01 -1.31155e-01
       H -6.35719e-01  6.49917e-01 -7.45740e-01
       H -5.18120e-01 -9.50981e-01  6.48632e-01
       L -1.97721e+00  5.80861e+00 -1.59769e+00
       L  3.81085e+00 -8.39259e-01 -1.53225e-02
6
# CELL(abcABC):  459.05226   459.05226   459.05226    90.00000    90.00000    90.00000  Step:          16  Bead:       0 x_centroid{angstrom}  cell{atomic_unit}
       C -2.98302e-01 -7.55805e-02  2.39461e-02
       O  8.61386e-01  2.44741e-01 -1.25743e-01
       H -7.47379e-01  6.23920e-01 -7.42294e-01
       H -5.37123e-01 -9.42381e-01  6.34764e-01
       L -1.88430e+00  5.93263e+00 -1.73559e+00
       L  4.07246e+00 -8.89294e-01 -9.25766e-02
6
# CELL(abcABC):  459.05226   459.05226   459.05226    90.00000    90.00000    90.00000  Step:          17  Bead:       0 x_centroid{angstrom}  cell{atomic_unit}
       C -2.91984e-01 -6.93970e-02  1.69687e-02
       O  8.65518e-01  2.41405e-01 -1.20041e-01
       H -8.65163e-01  5.92987e-01 -7.34195e-01
       H -5.60349e-01 -9.32219e-01  6.19388e-01
       L -1.78112e+00  6.05321e+00 -1.80875e+00
       L  4.23113e+00 -9.38624e-01 -1.82325e-01
6
# CELL(abcABC):  459.05226   459.05226   459.05226    90.00000    90.00000    90.00000  Step:          18  Bead:       0 x_centroid{angstrom}  cell{atomic_unit}
       C -2.85365e-01 -6.28873e-02  9.16069e-03
       O  8.69656e-01  2.38122e-01 -1.14008e-01
       H -9.84861e-01  5.58192e-01 -7.21753e-01
       H -5.85368e-01 -9.22930e-01  6.04304e-01
       L -1.58337e+00  6.16778e+00 -1.87295e+00
       L  4.33263e+00 -9.66199e-01 -2.64599e-01
6
# CELL(abcABC):  459.05226   459.05226   459.05226    90.00000    90.00000    90.00000  Step:          19  Bead:       0 x_centroid{angstrom}  cell{atomic_unit}
       C -2.78681e-01 -5.59662e-02  4.95427e-04
       O  8.73708e-01  2.34720e-01 -1.07593e-01
       H -1.10231e+00  5.20100e-01 -7.04886e-01
       H -6.12028e-01 -9.13340e-01  5.89001e-01
       L -1.40091e+00  6.23525e+00 -1.98203e+00
       L  4.40608e+00 -9.78320e-01 -4.09441e-01
6
# CELL(abcABC):  459.05226   459.05226   459.05226    90.00000    90.00000    90.00000  Step:          20  Bead:       0 x_centroid{angstrom}  cell{atomic_unit}
       C -2.72188e-01 -4.88179e-02 -8.52923e-03
       O  8.77723e-01  2.31365e-01 -1.01204e-01
       H -1.21573e+00  4.78210e-01 -6.82083e-01
       H -6.39841e-01 -9.03372e-01  5.72449e-01
       L -1.24559e+00  6.24153e+00 -2.06926e+00
       L  4.49091e+00 -9.79499e-01 -5.57504e-01
6
# CELL(abcABC):  459.05226   459.05226   459.05226    90.00000    90.00000    90.00000  Step:          21  Bead:       0 x_centroid{angstrom}  cell{atomic_unit}
       C -2.66129e-01 -4.14059e-02 -1.81232e-02
       O  8.81696e-01  2.27911e-01 -9.46857e-02
       H -1.32274e+00  4.33657e-01 -6.55775e-01
       H -6.68208e-01 -8.92272e-01  5.57117e-01
       L -1.08330e+00  6.15037e+00 -2.12585e+00
       L  4.53555e+00 -9.77374e-01 -7.19023e-01
6
# CELL(abcABC):  459.05226   459.05226   459.05226    90.00000    90.00000    90.00000  Step:          22  Bead:       0 x_centroid{angstrom}  cell{atomic_unit}
       C -2.61073e-01 -3.41225e-02 -2.80247e-02
       O  8.85758e-01  2.24484e-01 -8.81578e-02
       H -1.41979e+00  3.89081e-01 -6.26291e-01
       H -6.95965e-01 -8.80066e-01  5.42049e-01
       L -8.80176e-01  6.09043e+00 -2.13107e+00
       L  4.49452e+00 -9.45140e-01 -8.06705e-01
6
# CELL(abcABC):  459.05226   459.05226   459.05226    90.00000    90.00000    90.00000  Step:          23  Bead:       0 x_centroid{angstrom}  cell{atomic_unit}
       C -2.57104e-01 -2.71874e-02 -3.81070e-02
       O  8.89717e-01  2.21198e-01 -8.18412e-02
       H -1.50510e+00  3.45063e-01 -5.92954e-01
       H -7.20867e-01 -8.66509e-01  5.28629e-01
       L -6.78990e-01  5.97311e+00 -2.12010e+00
       L  4.41573e+00 -8.64548e-01 -8.91762e-01
6
# CELL(abcABC):  459.05226   459.05226   459.05226    90.00000    90.00000    90.00000  Step:          24  Bead:       0 x_centroid{angstrom}  cell{atomic_unit}
       C -2.54244e-01 -2.06356e-02 -4.81581e-02
       O  8.93489e-01  2.18029e-01 -7.56450e-02
       H -1.57828e+00  3.02425e-01 -5.59446e-01
       H -7.41675e-01 -8.51604e-01  5.16589e-01
       L -5.26218e-01  5.78949e+00 -2.08231e+00
       L  4.30484e+00 -7.60032e-01 -1.02698e+00
6
# CELL(abcABC):  459.05226   459.05226   459.05226    90.00000    90.00000    90.00000  Step:          25  Bead:       0 x_centroid{angstrom}  cell{atomic_unit}
       C -2.52362e-01 -1.46375e-02 -5.83207e-02
       O  8.96989e-01  2.15027e-01 -6.93769e-02
       H -1.63964e+00  2.62877e-01 -5.25695e-01
       H -7.58283e-01 -8.35802e-01  5.04481e-01
       L -4.16368e-01  5.57755e+00 -2.04452e+00
       L  4.17748e+00 -6.83811e-01 -1.13726e+00
6
# CELL(abcABC):  459.05226   459.05226   459.05226    90.00000    90.00000    90.00000  Step:          26  Bead:       0 x_centroid{angstrom}  cell{atomic_unit}
       C -2.51643e-01 -9.27167e-03 -6.81971e-02
       O  9.00422e-01  2.12338e-01 -6.34445e-02
       H -1.69031e+00  2.27137e-01 -4.92579e-01
       H -7.70553e-01 -8.21237e-01  4.94927e-01
       L -3.77420e-01  5.32016e+00 -2.01597e+00
       L  3.94517e+00 -5.81430e-01 -1.24438e+00
6
# CELL(abcABC):  459.05226   459.05226   459.05226    90.00000    90.00000    90.00000  Step:          27  Bead:       0 x_centroid{angstrom}  cell{atomic_unit}
       C -2.51736e-01 -4.47931e-03 -7.75302e-02
       O  9.03469e-01  2.09877e-01 -5.78526e-02
       H -1.73005e+00  1.95282e-01 -4.60477e-01
       H -7.77943e-01 -8.07344e-01  4.85294e-01
       L -3.33765e-01  5.04720e+00 -1.92921e+00
       L  3.66437e+00 -4.52660e-01 -1.35909e+00
6
# CELL(abcABC):  459.05226   459.05226   459.05226    90.00000    90.00000    90.00000  Step:          28  Bead:       0 x_centroid{angstrom}  cell{atomic_unit}
       C -2.52648e-01 -5.04005e-04 -8.62499e-02
       O  9.06009e-01  2.07684e-01 -5.26532e-02
       H -1.75922e+00  1.69120e-01 -4.30706e-01
       H -7.78090e-01 -7.93624e-01  4.76891e-01
       L -2.96716e-01  4.70593e+00 -1.82288e+00
       L  3.36539e+00 -3.27344e-01 -1.45850e+00
6
# CELL(abcABC):  459.05226   459.05226   459.05226    90.00000    90.00000    90.00000  Step:          29  Bead:       0 x_centroid{angstrom}  cell{atomic_unit}
       C -2.54469e-01  2.73419e-03 -9.45270e-02
       O  9.08271e-01  2.05759e-01 -4.77053e-02
       H -1.77842e+00  1.49207e-01 -4.03540e-01
       H -7.72942e-01 -7.81621e-01  4.69770e-01
       L -2.51297e-01  4.32702e+00 -1.69033e+00
       L  3.02812e+00 -1.75418e-01 -1.50593e+00
6
# CELL(abcABC):  459.05226   459.05226   459.05226    90.00000    90.00000    90.00000  Step:          30  Bead:       0 x_centroid{angstrom}  cell{atomic_unit}
       C -2.56979e-01  5.33322e-03 -1.02395e-01
       O  9.10020e-01  2.03989e-01 -4.28748e-02
       H -1.78775e+00  1.36251e-01 -3.80508e-01
       H -7.61298e-01 -7.71366e-01  4.63787e-01
       L -2.19097e-01  3.88200e+00 -1.56227e+00
       L  2.68562e+00 -3.01036e-02 -1.57975e+00
6
# CELL(abcABC):  459.05226   459.05226   459.05226    90.00000    90.00000    90.00000  Step:          31  Bead:       0 x_centroid{angstrom}  cell{atomic_unit}
       C -2.60345e-01  7.31270e-03 -1.09744e-01
       O  9.11540e-01  2.02452e-01 -3.82504e-02
       H -1.78878e+00  1.28833e-01 -3.62614e-01
       H -7.44077e-01 -7.62942e-01  4.60002e-01
       L -2.36484e-01  3.37965e+00 -1.40665e+00
       L  2.31949e+00  1.10060e-01 -1.63394e+00
6
# CELL(abcABC):  459.05226   459.05226   459.05226    90.00000    90.00000    90.00000  Step:          32  Bead:       0 x_centroid{angstrom}  cell{atomic_unit}
       C -2.64492e-01  8.67649e-03 -1.16529e-01
       O  9.12708e-01  2.01110e-01 -3.38676e-02
       H -1.78054e+00  1.29254e-01 -3.49329e-01
       H -7.21181e-01 -7.58116e-01  4.57890e-01
       L -2.93858e-01  2.83861e+00 -1.22248e+00
       L  1.91255e+00  2.78768e-01 -1.62404e+00
6
# CELL(abcABC):  459.05226   459.05226   459.05226    90.00000    90.00000    90.00000  Step:          33  Bead:       0 x_centroid{angstrom}  cell{atomic_unit}
       C -2.69241e-01  9.24609e-03 -1.22706e-01
       O  9.13515e-01  2.00155e-01 -2.97661e-02
       H -1.76281e+00  1.36235e-01 -3.41103e-01
       H -6.94865e-01 -7.56551e-01  4.58087e-01
       L -3.53435e-01  2.28843e+00 -1.04811e+00
       L  1.48332e+00  5.09924e-01 -1.64782e+00
6
# CELL(abcABC):  459.05226   459.05226   459.05226    90.00000    90.00000    90.00000  Step:          34  Bead:       0 x_centroid{angstrom}  cell{atomic_unit}
       C -2.74056e-01  9.66937e-03 -1.28379e-01
       O  9.13649e-01  1.99282e-01 -2.58774e-02
       H -1.73531e+00  1.48547e-01 -3.37894e-01
       H -6.66827e-01 -7.59843e-01  4.60657e-01
       L -4.22139e-01  1.66787e+00 -8.70586e-01
       L  1.04054e+00  7.47750e-01 -1.64401e+00
6
# CELL(abcABC):  459.05226   459.05226   459.05226    90.00000    90.00000    90.00000  Step:          35  Bead:       0 x_centroid{angstrom}  cell{atomic_unit}
       C -2.79398e-01  9.57536e-03 -1.33209e-01
       O  9.13387e-01  1.98845e-01 -2.25792e-02
       H -1.69696e+00  1.66180e-01 -3.37818e-01
       H -6.37123e-01 -7.69197e-01  4.65677e-01
       L -4.63358e-01  1.02192e+00 -7.02613e-01
       L  6.19322e-01  9.95282e-01 -1.61416e+00
6
# CELL(abcABC):  459.05226   459.05226   459.05226    90.00000    90.00000    90.00000  Step:          36  Bead:       0 x_centroid{angstrom}  cell{atomic_unit}
       C -2.85134e-01  9.08603e-03 -1.37211e-01
       O  9.12745e-01  1.98591e-01 -1.97702e-02
       H -1.64879e+00  1.90236e-01 -3.42234e-01
       H -6.06482e-01 -7.83184e-01  4.73113e-01
       L -4.91137e-01  4.05102e-01 -5.92326e-01
       L  1.57633e-01  1.24594e+00 -1.59415e+00
6
# CELL(abcABC):  459.05226   459.05226   459.05226    90.00000    90.00000    90.00000  Step:          37  Bead:       0 x_centroid{angstrom}  cell{atomic_unit}
       C -2.91216e-01  8.25708e-03 -1.40471e-01
       O  9.11646e-01  1.98567e-01 -1.74009e-02
       H -1.58978e+00  2.19066e-01 -3.49986e-01
       H -5.75328e-01 -8.01566e-01  4.82036e-01
       L -5.24492e-01 -2.42228e-01 -4.62739e-01
       L -2.86056e-01  1.53673e+00 -1.58536e+00
6
# CELL(abcABC):  459.05226   459.05226   459.05226    90.00000    90.00000    90.00000  Step:          38  Bead:       0 x_centroid{angstrom}  cell{atomic_unit}
       C -2.97722e-01  6.85764e-03 -1.42792e-01
       O  9.10205e-01  1.98934e-01 -1.56725e-02
       H -1.51922e+00  2.52348e-01 -3.60357e-01
       H -5.45228e-01 -8.23803e-01  4.92568e-01
       L -5.70278e-01 -8.65023e-01 -3.64097e-01
       L -7.01032e-01  1.78197e+00 -1.58656e+00
6
# CELL(abcABC):  459.05226   459.05226   459.05226    90.00000    90.00000    90.00000  Step:          39  Bead:       0 x_centroid{angstrom}  cell{atomic_unit}
       C -3.03808e-01  5.04787e-03 -1.44651e-01
       O  9.07907e-01  1.99548e-01 -1.40714e-02
       H -1.43840e+00  2.89549e-01 -3.74251e-01
       H -5.16782e-01 -8.48926e-01  5.03135e-01
       L -6.32768e-01 -1.53137e+00 -2.86305e-01
       L -1.11493e+00  2.00011e+00 -1.53721e+00
6
# CELL(abcABC):  459.05226   459.05226   459.05226    90.00000    90.00000    90.00000  Step:          40  Bead:       0 x_centroid{angstrom}  cell{atomic_unit}
       C -3.09493e-01  2.68973e-03 -1.45435e-01
       O  9.04977e-01  2.00520e-01 -1.30017e-02
       H -1.34946e+00  3.30695e-01 -3.91786e-01
       H -4.91203e-01 -8.77140e-01  5.12920e-01
       L -7.51115e-01 -2.17534e+00 -1.88554e-01
       L -1.49743e+00  2.16577e+00 -1.44282e+00
6
# CELL(abcABC):  459.05226   459.05226   459.05226    90.00000    90.00000    90.00000  Step:          41  Bead:       0 x_centroid{angstrom}  cell{atomic_unit}
       C -3.14419e-01 -4.36918e-04 -1.44994e-01
       O  9.01408e-01  2.01912e-01 -1.25123e-02
       H -1.25692e+00  3.76078e-01 -4.12433e-01
       H -4.68143e-01 -9.07088e-01  5.20417e-01
       L -8.37235e-01 -2.81585e+00 -8.05655e-02
       L -1.86541e+00  2.30044e+00 -1.31265e+00
6
# CELL(abcABC):  459.05226   459.05226   459.05226    90.00000    90.00000    90.00000  Step:          42  Bead:       0 x_centroid{angstrom}  cell{atomic_unit}
       C -3.18483e-01 -4.62594e-03 -1.43388e-01
       O  8.97463e-01  2.03654e-01 -1.24489e-02
       H -1.16578e+00  4.27935e-01 -4.37114e-01
       H -4.48049e-01 -9.36414e-01  5.24785e-01
       L -9.21446e-01 -3.38301e+00  5.18261e-02
       L -2.13241e+00  2.36947e+00 -1.13908e+00
6
# CELL(abcABC):  459.05226   459.05226   459.05226    90.00000    90.00000    90.00000  Step:          43  Bead:       0 x_centroid{angstrom}  cell{atomic_unit}
       C -3.21005e-01 -1.01112e-02 -1.40490e-01
       O  8.92981e-01  2.05705e-01 -1.27451e-02
       H -1.08113e+00  4.87098e-01 -4.67625e-01
       H -4.31327e-01 -9.62511e-01  5.25296e-01
       L -1.02459e+00 -3.91965e+00  1.83838e-01
       L -2.33542e+00  2.42673e+00 -9.43451e-01
6
# CELL(abcABC):  459.05226   459.05226   459.05226    90.00000    90.00000    90.00000  Step:          44  Bead:       0 x_centroid{angstrom}  cell{atomic_unit}
       C -3.21319e-01 -1.70583e-02 -1.36117e-01
       O  8.87736e-01  2.08103e-01 -1.33642e-02
       H -1.00642e+00  5.55736e-01 -5.06118e-01
       H -4.18840e-01 -9.86226e-01  5.21316e-01
       L -1.18906e+00 -4.39830e+00  3.09323e-01
       L -2.55461e+00  2.52927e+00 -7.30168e-01
6
# CELL(abcABC):  459.05226   459.05226   459.05226    90.00000    90.00000    90.00000  Step:          45  Bead:       0 x_centroid{angstrom}  cell{atomic_unit}
       C -3.19961e-01 -2.54985e-02 -1.30748e-01
       O  8.82308e-01  2.10915e-01 -1.41755e-02
       H -9.43510e-01  6.30992e-01 -5.50135e-01
       H -4.11589e-01 -1.00537e+00  5.14070e-01
       L -1.36414e+00 -4.81896e+00  4.24571e-01
       L -2.71677e+00  2.62461e+00 -5.41682e-01
6
# CELL(abcABC):  459.05226   459.05226   459.05226    90.00000    90.00000    90.00000  Step:          46  Bead:       0 x_centroid{angstrom}  cell{atomic_unit}
       C -3.17079e-01 -3.49028e-02 -1.24393e-01
       O  8.76526e-01  2.13939e-01 -1.52498e-02
       H -8.87878e-01  7.10445e-01 -5.98646e-01
       H -4.09631e-01 -1.02061e+00  5.03772e-01
       L -1.51779e+00 -5.17309e+00  5.46625e-01
       L -2.83136e+00  2.70958e+00 -4.07021e-01
6
# CELL(abcABC):  459.05226   459.05226   459.05226    90.00000    90.00000    90.00000  Step:          47  Bead:       0 x_centroid{angstrom}  cell{atomic_unit}
       C -3.12786e-01 -4.49635e-02 -1.17524e-01
       O  8.70463e-01  2.17108e-01 -1.63157e-02
       H -8.37150e-01  7.89975e-01 -6.49367e-01
       H -4.15109e-01 -1.03043e+00  4.89392e-01
       L -1.64902e+00 -5.48994e+00  6.95532e-01
       L -3.01423e+00  2.79517e+00 -2.51234e-01
6
# CELL(abcABC):  459.05226   459.05226   459.05226    90.00000    90.00000    90.00000  Step:          48  Bead:       0 x_centroid{angstrom}  cell{atomic_unit}
       C -3.07451e-01 -5.49242e-02 -1.10497e-01
       O  8.64233e-01  2.20278e-01 -1.72956e-02
       H -7.89494e-01  8.64414e-01 -6.98313e-01
       H -4.27316e-01 -1.03638e+00  4.69986e-01
       L -1.71388e+00 -5.73690e+00  8.27447e-01
       L -3.19547e+00  2.82027e+00 -7.80330e-02
6
# CELL(abcABC):  459.05226   459.05226   459.05226    90.00000    90.00000    90.00000  Step:          49  Bead:       0 x_centroid{angstrom}  cell{atomic_unit}
       C -3.01313e-01 -6.43196e-02 -1.03231e-01
       O  8.58048e-01  2.23151e-01 -1.83783e-02
       H -7.45999e-01  9.31411e-01 -7.44317e-01
       H -4.45625e-01 -1.03696e+00  4.46459e-01
       L -1.82410e+00 -5.92644e+00  9.40766e-01
       L -3.34228e+00  2.88146e+00  6.33196e-02
6
# CELL(abcABC):  459.05226   459.05226   459.05226    90.00000    90.00000    90.00000  Step:          50  Bead:       0 x_centroid{angstrom}  cell{atomic_unit}
       C -2.94712e-01 -7.27680e-02 -9.64004e-02
       O  8.52055e-01  2.25735e-01 -1.92141e-02
       H -7.05955e-01  9.88580e-01 -7.85492e-01
       H -4.69087e-01 -1.03440e+00  4.19348e-01
       L -1.92206e+00 -6.06734e+00  1.10189e+00
       L -3.46402e+00  2.91044e+00  1.96215e-01
6
# CELL(abcABC):  459.05226   459.05226   459.05226    90.00000    90.00000    90.00000  Step:          51  Bead:       0 x_centroid{angstrom}  cell{atomic_unit}
       C -2.87873e-01 -8.04134e-02 -9.01338e-02
       O  8.46268e-01  2.28334e-01 -1.98547e-02
       H -6.69474e-01  1.03348e+00 -8.21411e-01
       H -4.95112e-01 -1.02942e+00  3.90603e-01
       L -1.98861e+00 -6.17464e+00  1.24034e+00
       L -3.54173e+00  2.93374e+00  3.49532e-01
6
# CELL(abcABC):  459.05226   459.05226   459.05226    90.00000    90.00000    90.00000  Step:          52  Bead:       0 x_centroid{angstrom}  cell{atomic_unit}
       C -2.81047e-01 -8.68718e-02 -8.44287e-02
       O  8.41082e-01  2.30842e-01 -2.03285e-02
       H -6.37200e-01  1.06702e+00 -8.53062e-01
       H -5.26385e-01 -1.02578e+00  3.61726e-01
       L -1.99941e+00 -6.22034e+00  1.31355e+00
       L -3.58272e+00  2.95831e+00  3.99507e-01
6
# CELL(abcABC):  459.05226   459.05226   459.05226    90.00000    90.00000    90.00000  Step:          53  Bead:       0 x_centroid{angstrom}  cell{atomic_unit}
       C -2.74350e-01 -9.20970e-02 -7.96250e-02
       O  8.36565e-01  2.33254e-01 -2.03966e-02
       H -6.08581e-01  1.08972e+00 -8.80034e-01
       H -5.63097e-01 -1.02448e+00  3.32480e-01
       L -2.01793e+00 -6.24890e+00  1.37441e+00
       L -3.56890e+00  2.93595e+00  4.43711e-01
6
# CELL(abcABC):  459.05226   459.05226   459.05226    90.00000    90.00000    90.00000  Step:          54  Bead:       0 x_centroid{angstrom}  cell{atomic_unit}
       C -2.67801e-01 -9.60492e-02 -7.57091e-02
       O  8.32747e-01  2.35597e-01 -2.02044e-02
       H -5.84286e-01  1.09948e+00 -9.00868e-01
       H -6.04861e-01 -1.02434e+00  3.03542e-01
       L -1.96397e+00 -6.26100e+00  1.43022e+00
       L -3.57104e+00  2.93609e+00  4.98393e-01
6
# CELL(abcABC):  459.05226   459.05226   459.05226    90.00000    90.00000    90.00000  Step:          55  Bead:       0 x_centroid{angstrom}  cell{atomic_unit}
       C -2.61606e-01 -9.88988e-02 -7.27212e-02
       O  8.29811e-01  2.37811e-01 -1.95940e-02
       H -5.65122e-01  1.09912e+00 -9.17026e-01
       H -6.51285e-01 -1.02516e+00  2.74359e-01
       L -1.91645e+00 -6.27407e+00  1.46254e+00
       L -3.53232e+00  2.95866e+00  5.52823e-01
6
# CELL(abcABC):  459.05226   459.05226   459.05226    90.00000    90.00000    90.00000  Step:          56  Bead:       0 x_centroid{angstrom}  cell{atomic_unit}
       C -2.55573e-01 -1.00613e-01 -7.04897e-02
       O  8.27584e-01  2.39880e-01 -1.87000e-02
       H -5.52934e-01  1.08855e+00 -9.29128e-01
       H -7.00086e-01 -1.02704e+00  2.45659e-01
       L -1.83133e+00 -6.25472e+00  1.47098e+00
       L -3.48580e+00  2.98990e+00  5.80826e-01
6
# CELL(abcABC):  459.05226   459.05226   459.05226    90.00000    90.00000    90.00000  Step:          57  Bead:       0 x_centroid{angstrom}  cell{atomic_unit}
       C -2.50495e-01 -1.01328e-01 -6.89811e-02
       O  8.26552e-01  2.41908e-01 -1.76131e-02
       H -5.47352e-01  1.06732e+00 -9.37162e-01
       H -7.49934e-01 -1.02951e+00  2.18491e-01
       L -1.74604e+00 -6.23345e+00  1.49232e+00
       L -3.32281e+00  3.01887e+00  5.08674e-01
6
# CELL(abcABC):  459.05226   459.05226   459.05226    90.00000    90.00000    90.00000  Step:          58  Bead:       0 x_centroid{angstrom}  cell{atomic_unit}
       C -2.46474e-01 -1.00727e-01 -6.86496e-02
       O  8.26759e-01  2.43550e-01 -1.60397e-02
       H -5.48490e-01  1.03616e+00 -9.39301e-01
       H -8.00119e-01 -1.03158e+00  1.91692e-01
       L -1.68281e+00 -6.21647e+00  1.58345e+00
       L -3.15251e+00  3.01996e+00  4.40356e-01
6
# CELL(abcABC):  459.05226   459.05226   459.05226    90.00000    90.00000    90.00000  Step:          59  Bead:       0 x_centroid{angstrom}  cell{atomic_unit}
       C -2.43523e-01 -9.91052e-02 -6.95646e-02
       O  8.28149e-01  2.44825e-01 -1.38435e-02
       H -5.57154e-01  9.96313e-01 -9.36217e-01
       H -8.48806e-01 -1.03130e+00  1.64697e-01
       L -1.64379e+00 -6.16090e+00  1.64551e+00
       L -2.96850e+00  2.94057e+00  2.91631e-01
6
# CELL(abcABC):  459.05226   459.05226   459.05226    90.00000    90.00000    90.00000  Step:          60  Bead:       0 x_centroid{angstrom}  cell{atomic_unit}
       C -2.41809e-01 -9.68561e-02 -7.13767e-02
       O  8.30686e-01  2.46042e-01 -1.13459e-02
       H -5.71988e-01  9.46687e-01 -9.29070e-01
       H -8.94843e-01 -1.02782e+00  1.39592e-01
       L -1.56422e+00 -5.99524e+00  1.68717e+00
       L -2.71791e+00  2.82955e+00  7.95458e-02
6
# CELL(abcABC):  459.05226   459.05226   459.05226    90.00000    90.00000    90.00000  Step:          61  Bead:       0 x_centroid{angstrom}  cell{atomic_unit}
       C -2.41414e-01 -9.40952e-02 -7.41583e-02
       O  8.34224e-01  2.47072e-01 -8.42689e-03
       H -5.92380e-01  8.89318e-01 -9.17451e-01
       H -9.35529e-01 -1.01972e+00  1.14855e-01
       L -1.46827e+00 -5.82378e+00  1.74968e+00
       L -2.42860e+00  2.70248e+00 -1.11960e-01
6
# CELL(abcABC):  459.05226   459.05226   459.05226    90.00000    90.00000    90.00000  Step:          62  Bead:       0 x_centroid{angstrom}  cell{atomic_unit}
       C -2.42356e-01 -9.07255e-02 -7.81484e-02
       O  8.38812e-01  2.47787e-01 -4.92924e-03
       H -6.17665e-01  8.24837e-01 -9.00202e-01
       H -9.72100e-01 -1.00681e+00  8.97467e-02
       L -1.35934e+00 -5.57886e+00  1.80287e+00
       L -2.09728e+00  2.59695e+00 -3.75431e-01
6
# CELL(abcABC):  459.05226   459.05226   459.05226    90.00000    90.00000    90.00000  Step:          63  Bead:       0 x_centroid{angstrom}  cell{atomic_unit}
       C -2.44417e-01 -8.69771e-02 -8.33573e-02
       O  8.44177e-01  2.48466e-01 -1.00892e-03
       H -6.47993e-01  7.52193e-01 -8.77757e-01
       H -1.00264e+00 -9.89645e-01  6.72955e-02
       L -1.20469e+00 -5.36897e+00  1.85591e+00
       L -1.75661e+00  2.44838e+00 -7.10176e-01
6
# CELL(abcABC):  459.05226   459.05226   459.05226    90.00000    90.00000    90.00000  Step:          64  Bead:       0 x_centroid{angstrom}  cell{atomic_unit}
       C -2.47615e-01 -8.27594e-02 -8.99659e-02
       O  8.50194e-01  2.48979e-01  3.65776e-03
       H -6.81297e-01  6.74579e-01 -8.51196e-01
       H -1.02698e+00 -9.70516e-01  4.55363e-02
       L -1.05441e+00 -5.07925e+00  1.89816e+00
       L -1.43916e+00  2.30284e+00 -9.88701e-01
6
# CELL(abcABC):  459.05226   459.05226   459.05226    90.00000    90.00000    90.00000  Step:          65  Bead:       0 x_centroid{angstrom}  cell{atomic_unit}
       C -2.52015e-01 -7.80662e-02 -9.79624e-02
       O  8.56878e-01  2.49145e-01  8.94451e-03
       H -7.18258e-01  5.93354e-01 -8.21473e-01
       H -1.04401e+00 -9.47965e-01  2.73251e-02
       L -8.54119e-01 -4.76027e+00  1.91992e+00
       L -1.05863e+00  2.18557e+00 -1.27317e+00
6
# CELL(abcABC):  459.05226   459.05226   459.05226    90.00000    90.00000    90.00000  Step:          66  Bead:       0 x_centroid{angstrom}  cell{atomic_unit}
       C -2.57282e-01 -7.32710e-02 -1.06924e-01