6
# CELL(abcABC):  459.05226   459.05226   459.05226    90.00000    90.00000    90.00000  Step:           0  Bead:       0 x_centroid{angstrom}  cell{atomic_unit}
       C -3.39887e-01 -1.13437e-01  8.06659e-02
       O  8.43483e-01  2.62672e-01 -1.81512e-01
       H -7.35799e-02  8.16467e-01 -6.61432e-01
       H -4.30016e-01 -9.65701e-01  7.62278e-01
       L  0.00000e+00  0.00000e+00  0.00000e+00
       L  0.00000e+00  0.00000e+00  0.00000e+00
6
# CELL(abcABC):  459.05226   459.05226   459.05226    90.00000    90.00000    90.00000  Step:           1  Bead:       0 x_centroid{angstrom}  cell{atomic_unit}
       C -3.39917e-01 -1.15650e-01  8.05649e-02
       O  8.43558e-01  2.65137e-01 -1.81494e-01
       H -7.26762e-02  8.10651e-01 -6.62311e-01
       H -4.31917e-01 -9.72465e-01  7.64241e-01
       L  1.69583e-01 -1.35385e-01 -1.34144e-03
       L  1.51005e-01 -2.02548e-01 -3.09688e-01
6
# CELL(abcABC):  459.05226   459.05226   459.05226    90.00000    90.00000    90.00000  Step:           2  Bead:       0 x_centroid{angstrom}  cell{atomic_unit}
       C -3.40241e-01 -1.17822e-01  8.05165e-02
       O  8.43897e-01  2.67594e-01 -1.81462e-01
       H -7.28883e-02  8.04677e-01 -6.63925e-01
       H -4.33414e-01 -9.79431e-01  7.66103e-01
       L  3.54324e-01 -2.22774e-01 -2.73528e-02
       L  3.04324e-01 -4.44645e-01 -6.08158e-01
6
# CELL(abcABC):  459.05226   459.05226   459.05226    90.00000    90.00000    90.00000  Step:           3  Bead:       0 x_centroid{angstrom}  cell{atomic_unit}
       C -3.40773e-01 -1.19891e-01  8.06108e-02
       O  8.44415e-01  2.69949e-01 -1.81630e-01
       H -7.26336e-02  7.98737e-01 -6.65244e-01
       H -4.35750e-01 -9.86079e-01  7.69114e-01
       L  5.08785e-01 -2.80105e-01 -3.28701e-02
       L  5.12896e-01 -6.61749e-01 -8.92626e-01
6
# CELL(abcABC):  459.05226   459.05226   459.05226    90.00000    90.00000    90.00000  Step:           4  Bead:       0 x_centroid{angstrom}  cell{atomic_unit}
       C -3.41370e-01 -1.21986e-01  8.08451e-02
       O  8.44918e-01  2.72062e-01 -1.81791e-01
       H -7.22785e-02  7.95041e-01 -6.67612e-01
       H -4.37188e-01 -9.90792e-01  7.71366e-01
       L  7.06458e-01 -3.82464e-01 -2.71491e-03
       L  7.00668e-01 -8.64513e-01 -1.13908e+00
6
# CELL(abcABC):  459.05226   459.05226   459.05226    90.00000    90.00000    90.00000  Step:           5  Bead:       0 x_centroid{angstrom}  cell{atomic_unit}
       C -3.41880e-01 -1.24101e-01  8.12853e-02
       O  8.45257e-01  2.74011e-01 -1.82001e-01
       H -7.15978e-02  7.93087e-01 -6.69871e-01
       H -4.37366e-01 -9.94390e-01  7.71832e-01
       L  8.73432e-01 -4.94826e-01  4.85374e-03
       L  8.80429e-01 -1.06859e+00 -1.37593e+00
6
# CELL(abcABC):  459.05226   459.05226   459.05226    90.00000    90.00000    90.00000  Step:           6  Bead:       0 x_centroid{angstrom}  cell{atomic_unit}
       C -3.42478e-01 -1.26117e-01  8.15463e-02
       O  8.45562e-01  2.75802e-01 -1.82113e-01
       H -6.93234e-02  7.91129e-01 -6.71377e-01
       H -4.37522e-01 -9.96688e-01  7.72141e-01
       L  1.00766e+00 -5.82560e-01  2.81860e-03
       L  1.05581e+00 -1.27448e+00 -1.59962e+00
6
# CELL(abcABC):  459.05226   459.05226   459.05226    90.00000    90.00000    90.00000  Step:           7  Bead:       0 x_centroid{angstrom}  cell{atomic_unit}
       C -3.43029e-01 -1.28213e-01  8.17945e-02
       O  8.45748e-01  2.77557e-01 -1.82219e-01
       H -6.67042e-02  7.89473e-01 -6.72387e-01
       H -4.36666e-01 -9.97729e-01  7.71975e-01
       L  1.08134e+00 -7.01656e-01 -6.00996e-03
       L  1.23511e+00 -1.49166e+00 -1.77598e+00
6
# CELL(abcABC):  459.05226   459.05226   459.05226    90.00000    90.00000    90.00000  Step:           8  Bead:       0 x_centroid{angstrom}  cell{atomic_unit}
       C -3.43802e-01 -1.30768e-01  8.20279e-02
       O  8.45910e-01  2.79544e-01 -1.82233e-01
       H -6.26712e-02  7.88009e-01 -6.73955e-01
       H -4.34195e-01 -9.97208e-01  7.71057e-01
       L  1.13802e+00 -7.85676e-01 -4.35127e-02
       L  1.44256e+00 -1.69163e+00 -1.88113e+00
6
# CELL(abcABC):  459.05226   459.05226   459.05226    90.00000    90.00000    90.00000  Step:           9  Bead:       0 x_centroid{angstrom}  cell{atomic_unit}
       C -3.44601e-01 -1.33357e-01  8.19705e-02
       O  8.45955e-01  2.81382e-01 -1.81870e-01
       H -5.64293e-02  7.87326e-01 -6.75912e-01
       H -4.31780e-01 -9.94662e-01  7.68014e-01
       L  1.20066e+00 -8.61475e-01 -9.37331e-02
       L  1.63610e+00 -1.93538e+00 -1.97843e+00
6
# CELL(abcABC):  459.05226   459.05226   459.05226    90.00000    90.00000    90.00000  Step:          10  Bead:       0 x_centroid{angstrom}  cell{atomic_unit}
       C -3.45095e-01 -1.36075e-01  8.22635e-02
       O  8.45682e-01  2.83220e-01 -1.81723e-01
       H -4.77424e-02  7.86404e-01 -6.77024e-01
       H -4.30373e-01 -9.90405e-01  7.63380e-01
       L  1.24980e+00 -9.04931e-01 -1.49152e-01
       L  1.81858e+00 -2.14961e+00 -2.06264e+00
6
# CELL(abcABC):  459.05226   459.05226   459.05226    90.00000    90.00000    90.00000  Step:          11  Bead:       0 x_centroid{angstrom}  cell{atomic_unit}
       C -3.45577e-01 -1.39018e-01  8.22131e-02
       O  8.45275e-01  2.85157e-01 -1.81221e-01
       H -3.76978e-02  7.85813e-01 -6.78653e-01
       H -4.28268e-01 -9.85364e-01  7.57673e-01
       L  1.20983e+00 -9.48098e-01 -1.87720e-01
       L  1.97306e+00 -2.30573e+00 -2.08481e+00
6
# CELL(abcABC):  459.05226   459.05226   459.05226    90.00000    90.00000    90.00000  Step:          12  Bead:       0 x_centroid{angstrom}  cell{atomic_unit}
       C -3.45895e-01 -1.42032e-01  8.23104e-02
       O  8.44447e-01  2.87261e-01 -1.80755e-01
       H -2.34032e-02  7.85301e-01 -6.82234e-01
       H -4.25669e-01 -9.82255e-01  7.52696e-01
       L  1.15326e+00 -9.86644e-01 -1.78288e-01
       L  2.09487e+00 -2.44858e+00 -2.08111e+00
6
# CELL(abcABC):  459.05226   459.05226   459.05226    90.00000    90.00000    90.00000  Step:          13  Bead:       0 x_centroid{angstrom}  cell{atomic_unit}
       C -3.46351e-01 -1.45064e-01  8.21511e-02
       O  8.43360e-01  2.89308e-01 -1.80218e-01
       H -5.62274e-03  7.85776e-01 -6.85842e-01
       H -4.20772e-01 -9.78974e-01  7.49650e-01
       L  1.07699e+00 -1.02666e+00 -1.36126e-01
       L  2.21227e+00 -2.61899e+00 -2.07847e+00
6
# CELL(abcABC):  459.05226   459.05226   459.05226    90.00000    90.00000    90.00000  Step:          14  Bead:       0 x_centroid{angstrom}  cell{atomic_unit}
       C -3.47144e-01 -1.47906e-01  8.20943e-02
       O  8.42277e-01  2.91174e-01 -1.79743e-01
       H  1.58654e-02  7.88389e-01 -6.90089e-01
       H -4.15623e-01 -9.77252e-01  7.47000e-01
       L  9.38950e-01 -1.04779e+00 -8.84091e-02
       L  2.33581e+00 -2.74668e+00 -2.08141e+00
6
# CELL(abcABC):  459.05226   459.05226   459.05226    90.00000    90.00000    90.00000  Step:          15  Bead:       0 x_centroid{angstrom}  cell{atomic_unit}
       C -3.48022e-01 -1.50820e-01  8.20598e-02
       O  8.40850e-01  2.93087e-01 -1.79195e-01
       H  4.26059e-02  7.92615e-01 -6.96025e-01
       H -4.09225e-01 -9.77090e-01  7.44596e-01
       L  7.28670e-01 -1.08132e+00 -7.41933e-03
       L  2.48656e+00 -2.77738e+00 -2.06397e+00
6
# CELL(abcABC):  459.05226   459.05226   459.05226    90.00000    90.00000    90.00000  Step:          16  Bead:       0 x_centroid{angstrom}  cell{atomic_unit}
       C -3.49225e-01 -1.53517e-01  8.24322e-02
       O  8.39214e-01  2.94892e-01 -1.78929e-01
       H  7.56476e-02  7.99425e-01 -7.03880e-01
       H -4.01901e-01 -9.80404e-01  7.43754e-01
       L  4.90098e-01 -1.11995e+00  5.87349e-02
       L  2.61436e+00 -2.75590e+00 -2.03450e+00
6
# CELL(abcABC):  459.05226   459.05226   459.05226    90.00000    90.00000    90.00000  Step:          17  Bead:       0 x_centroid{angstrom}  cell{atomic_unit}
       C -3.50720e-01 -1.56324e-01  8.29385e-02
       O  8.37164e-01  2.96901e-01 -1.78920e-01
       H  1.16721e-01  8.06445e-01 -7.12084e-01
       H -3.92515e-01 -9.85908e-01  7.45725e-01
       L  2.28092e-01 -1.09158e+00  1.21359e-01
       L  2.68907e+00 -2.69236e+00 -2.01834e+00
6
# CELL(abcABC):  459.05226   459.05226   459.05226    90.00000    90.00000    90.00000  Step:          18  Bead:       0 x_centroid{angstrom}  cell{atomic_unit}
       C -3.52518e-01 -1.59259e-01  8.35997e-02
       O  8.34725e-01  2.99012e-01 -1.79044e-01
       H  1.65085e-01  8.15994e-01 -7.22388e-01
       H -3.80641e-01 -9.94054e-01  7.50075e-01
       L -4.37167e-02 -1.03793e+00  1.97711e-01
       L  2.78563e+00 -2.63065e+00 -2.00216e+00
6
# CELL(abcABC):  459.05226   459.05226   459.05226    90.00000    90.00000    90.00000  Step:          19  Bead:       0 x_centroid{angstrom}  cell{atomic_unit}
       C -3.54431e-01 -1.62456e-01  8.44642e-02
       O  8.31875e-01  3.01229e-01 -1.79285e-01
       H  2.20638e-01  8.28440e-01 -7.33663e-01
       H -3.68064e-01 -1.00368e+00  7.54810e-01
       L -3.15067e-01 -9.93942e-01  2.96797e-01
       L  2.90778e+00 -2.52974e+00 -1.97947e+00
6
# CELL(abcABC):  459.05226   459.05226   459.05226    90.00000    90.00000    90.00000  Step:          20  Bead:       0 x_centroid{angstrom}  cell{atomic_unit}
       C -3.57024e-01 -1.66000e-01  8.55407e-02
       O  8.29035e-01  3.03412e-01 -1.79664e-01
       H  2.82654e-01  8.45944e-01 -7.47710e-01
       H -3.54016e-01 -1.01373e+00  7.62005e-01
       L -5.96259e-01 -9.06703e-01  3.66203e-01
       L  3.01757e+00 -2.39219e+00 -1.98909e+00
6
# CELL(abcABC):  459.05226   459.05226   459.05226    90.00000    90.00000    90.00000  Step:          21  Bead:       0 x_centroid{angstrom}  cell{atomic_unit}
       C -3.60199e-01 -1.69571e-01  8.67952e-02
       O  8.26133e-01  3.05408e-01 -1.80136e-01
       H  3.49963e-01  8.68324e-01 -7.64724e-01
       H -3.37333e-01 -1.02541e+00  7.71530e-01
       L -8.69022e-01 -7.63948e-01  4.25826e-01
       L  3.10370e+00 -2.20577e+00 -1.97846e+00
6
# CELL(abcABC):  459.05226   459.05226   459.05226    90.00000    90.00000    90.00000  Step:          22  Bead:       0 x_centroid{angstrom}  cell{atomic_unit}
       C -3.63650e-01 -1.73215e-01  8.83358e-02
       O  8.22994e-01  3.07246e-01 -1.80610e-01
       H  4.21968e-01  8.94225e-01 -7.84875e-01
       H -3.18240e-01 -1.03729e+00  7.80776e-01
       L -1.17893e+00 -5.56531e-01  4.82209e-01
       L  3.14674e+00 -2.00675e+00 -1.91620e+00
6
# CELL(abcABC):  459.05226   459.05226   459.05226    90.00000    90.00000    90.00000  Step:          23  Bead:       0 x_centroid{angstrom}  cell{atomic_unit}
       C -3.67149e-01 -1.77237e-01  9.01978e-02
       O  8.19547e-01  3.08979e-01 -1.81088e-01
       H  4.97321e-01  9.24087e-01 -8.07849e-01
       H -2.97023e-01 -1.04694e+00  7.89075e-01
       L -1.48355e+00 -3.55802e-01  5.35442e-01
       L  3.15386e+00 -1.83272e+00 -1.83240e+00
6
# CELL(abcABC):  459.05226   459.05226   459.05226    90.00000    90.00000    90.00000  Step:          24  Bead:       0 x_centroid{angstrom}  cell{atomic_unit}
       C -3.70810e-01 -1.81582e-01  9.19686e-02
       O  8.16023e-01  3.10667e-01 -1.81397e-01
       H  5.76095e-01  9.57080e-01 -8.32241e-01
       H -2.76052e-01 -1.05514e+00  7.97212e-01
       L -1.79549e+00 -2.06265e-01  5.29128e-01
       L  3.14608e+00 -1.62360e+00 -1.70229e+00
6
# CELL(abcABC):  459.05226   459.05226   459.05226    90.00000    90.00000    90.00000  Step:          25  Bead:       0 x_centroid{angstrom}  cell{atomic_unit}
       C -3.74645e-01 -1.86114e-01  9.33725e-02
       O  8.12423e-01  3.12358e-01 -1.81510e-01
       H  6.56566e-01  9.90922e-01 -8.55857e-01
       H -2.53493e-01 -1.06204e+00  8.05842e-01
       L -2.08814e+00 -6.87370e-03  5.51958e-01
       L  3.07925e+00 -1.44028e+00 -1.62729e+00
6
# CELL(abcABC):  459.05226   459.05226   459.05226    90.00000    90.00000    90.00000  Step:          26  Bead:       0 x_centroid{angstrom}  cell{atomic_unit}
       C -3.79002e-01 -1.90778e-01  9.49250e-02
       O  8.08999e-01  3.14028e-01 -1.81716e-01
       H  7.38400e-01  1.02252e+00 -8.78104e-01
       H -2.28856e-01 -1.06477e+00  8.12836e-01
       L -2.38178e+00  1.78027e-01  5.19686e-01
       L  3.00523e+00 -1.25357e+00 -1.54990e+00
6
# CELL(abcABC):  459.05226   459.05226   459.05226    90.00000    90.00000    90.00000  Step:          27  Bead:       0 x_centroid{angstrom}  cell{atomic_unit}
       C -3.83154e-01 -1.95583e-01  9.61443e-02
       O  8.05327e-01  3.15882e-01 -1.81726e-01
       H  8.19281e-01  1.04947e+00 -8.97386e-01
       H -2.01778e-01 -1.06408e+00  8.17719e-01
       L -2.65504e+00  3.21784e-01  4.60363e-01
       L  2.91875e+00 -1.05445e+00 -1.46329e+00
6
# CELL(abcABC):  459.05226   459.05226   459.05226    90.00000    90.00000    90.00000  Step:          28  Bead:       0 x_centroid{angstrom}  cell{atomic_unit}
       C -3.87393e-01 -1.99982e-01  9.74801e-02
       O  8.01749e-01  3.17593e-01 -1.82076e-01
       H  8.98877e-01  1.07091e+00 -9.11584e-01
       H -1.73896e-01 -1.06043e+00  8.21530e-01
       L -2.87516e+00  4.34521e-01  4.15201e-01
       L  2.82249e+00 -8.53264e-01 -1.36791e+00
6
# CELL(abcABC):  459.05226   459.05226   459.05226    90.00000    90.00000    90.00000  Step:          29  Bead:       0 x_centroid{angstrom}  cell{atomic_unit}
       C -3.91526e-01 -2.04074e-01  9.85908e-02
       O  7.98222e-01  3.19267e-01 -1.82573e-01
       H  9.76033e-01  1.08592e+00 -9.18406e-01
       H -1.45596e-01 -1.05343e+00  8.22961e-01
       L -3.07166e+00  5.13083e-01  3.91883e-01
       L  2.60710e+00 -6.05938e-01 -1.25525e+00
6
# CELL(abcABC):  459.05226   459.05226   459.05226    90.00000    90.00000    90.00000  Step:          30  Bead:       0 x_centroid{angstrom}  cell{atomic_unit}
       C -3.95632e-01 -2.07986e-01  9.95520e-02
       O  7.95081e-01  3.21223e-01 -1.83348e-01
       H  1.04730e+00  1.09306e+00 -9.17078e-01
       H -1.17839e-01 -1.04522e+00  8.22382e-01
       L -3.28089e+00  6.52514e-01  4.12057e-01
       L  2.39135e+00 -3.36843e-01 -1.10489e+00
6
# CELL(abcABC):  459.05226   459.05226   459.05226    90.00000    90.00000    90.00000  Step:          31  Bead:       0 x_centroid{angstrom}  cell{atomic_unit}
       C -3.99461e-01 -2.11711e-01  1.00361e-01
       O  7.92239e-01  3.23484e-01 -1.84378e-01
       H  1.11073e+00  1.09243e+00 -9.07696e-01
       H -9.02967e-02 -1.03629e+00  8.19611e-01
       L -3.48925e+00  7.56300e-01  4.15371e-01
       L  2.16851e+00 -7.84167e-02 -9.11447e-01
6
# CELL(abcABC):  459.05226   459.05226   459.05226    90.00000    90.00000    90.00000  Step:          32  Bead:       0 x_centroid{angstrom}  cell{atomic_unit}
       C -4.02853e-01 -2.14916e-01  1.01217e-01
       O  7.89628e-01  3.25734e-01 -1.85762e-01
       H  1.16585e+00  1.08432e+00 -8.92000e-01
       H -6.33037e-02 -1.02590e+00  8.15552e-01
       L -3.75712e+00  8.77334e-01  4.33091e-01
       L  1.97199e+00  1.55601e-01 -7.02888e-01
6
# CELL(abcABC):  459.05226   459.05226   459.05226    90.00000    90.00000    90.00000  Step:          33  Bead:       0 x_centroid{angstrom}  cell{atomic_unit}
       C -4.05825e-01 -2.17788e-01  1.02153e-01
       O  7.87199e-01  3.28155e-01 -1.87547e-01
       H  1.21268e+00  1.06745e+00 -8.69834e-01
       H -3.59257e-02 -1.01339e+00  8.10473e-01
       L -4.02570e+00  9.44348e-01  4.15922e-01
       L  1.79205e+00  3.68528e-01 -4.79807e-01
6
# CELL(abcABC):  459.05226   459.05226   459.05226    90.00000    90.00000    90.00000  Step:          34  Bead:       0 x_centroid{angstrom}  cell{atomic_unit}
       C -4.08297e-01 -2.20700e-01  1.02747e-01
       O  7.85148e-01  3.30963e-01 -1.89387e-01
       H  1.24948e+00  1.04345e+00 -8.41957e-01
       H -1.04617e-02 -9.99371e-01  8.04597e-01
       L -4.27095e+00  9.92357e-01  3.83531e-01
       L  1.57703e+00  5.39781e-01 -2.37413e-01
6
# CELL(abcABC):  459.05226   459.05226   459.05226    90.00000    90.00000    90.00000  Step:          35  Bead:       0 x_centroid{angstrom}  cell{atomic_unit}
       C -4.10596e-01 -2.23220e-01  1.02995e-01
       O  7.83629e-01  3.33696e-01 -1.91339e-01
       H  1.27705e+00  1.01388e+00 -8.08236e-01
       H  1.36767e-02 -9.83261e-01  7.98766e-01
       L -4.47872e+00  9.99469e-01  3.92089e-01
       L  1.40963e+00  6.98160e-01  2.17424e-02
6
# CELL(abcABC):  459.05226   459.05226   459.05226    90.00000    90.00000    90.00000  Step:          36  Bead:       0 x_centroid{angstrom}  cell{atomic_unit}
       C -4.12487e-01 -2.25449e-01  1.03309e-01
       O  7.82463e-01  3.36517e-01 -1.93473e-01
       H  1.29563e+00  9.77680e-01 -7.71246e-01
       H  3.63226e-02 -9.65284e-01  7.91754e-01
       L -4.65792e+00  9.47770e-01  3.79289e-01
       L  1.25800e+00  7.91179e-01  3.01841e-01
6
# CELL(abcABC):  459.05226   459.05226   459.05226    90.00000    90.00000    90.00000  Step:          37  Bead:       0 x_centroid{angstrom}  cell{atomic_unit}
       C -4.14029e-01 -2.27331e-01  1.03146e-01
       O  7.81733e-01  3.39294e-01 -1.95440e-01
       H  1.30634e+00  9.39032e-01 -7.31579e-01
       H  5.57345e-02 -9.48298e-01  7.85088e-01
       L -4.77185e+00  8.89713e-01  3.68157e-01
       L  1.10075e+00  8.48075e-01  6.25575e-01
6
# CELL(abcABC):  459.05226   459.05226   459.05226    90.00000    90.00000    90.00000  Step:          38  Bead:       0 x_centroid{angstrom}  cell{atomic_unit}
       C -4.14898e-01 -2.28804e-01  1.02837e-01
       O  7.81018e-01  3.41792e-01 -1.97314e-01
       H  1.31246e+00  9.01168e-01 -6.93350e-01
       H  7.14939e-02 -9.32538e-01  7.80049e-01
       L -4.88342e+00  8.90791e-01  4.15753e-01
       L  8.91869e-01  8.68901e-01  1.00683e+00
6
# CELL(abcABC):  459.05226   459.05226   459.05226    90.00000    90.00000    90.00000  Step:          39  Bead:       0 x_centroid{angstrom}  cell{atomic_unit}
       C -4.15294e-01 -2.30080e-01  1.02264e-01
       O  7.80268e-01  3.44018e-01 -1.98761e-01
       H  1.31699e+00  8.67454e-01 -6.59879e-01
       H  8.37552e-02 -9.18978e-01  7.76139e-01
       L -4.96873e+00  9.31289e-01  4.64296e-01
       L  6.53419e-01  8.58733e-01  1.40266e+00
6
# CELL(abcABC):  459.05226   459.05226   459.05226    90.00000    90.00000    90.00000  Step:          40  Bead:       0 x_centroid{angstrom}  cell{atomic_unit}
       C -4.14959e-01 -2.30988e-01  1.01411e-01
       O  7.78979e-01  3.45588e-01 -1.99593e-01
       H  1.32474e+00  8.42632e-01 -6.35310e-01
       H  9.26263e-02 -9.08269e-01  7.74698e-01
       L -5.00159e+00  9.93633e-01  5.29593e-01
       L  4.10220e-01  8.37241e-01  1.78821e+00
6
# CELL(abcABC):  459.05226   459.05226   459.05226    90.00000    90.00000    90.00000  Step:          41  Bead:       0 x_centroid{angstrom}  cell{atomic_unit}
       C -4.14118e-01 -2.31573e-01  1.00168e-01
       O  7.77006e-01  3.46362e-01 -1.99544e-01
       H  1.33961e+00  8.28453e-01 -6.21169e-01
       H  9.92118e-02 -8.99438e-01  7.74331e-01
       L -4.99726e+00  1.10315e+00  6.07316e-01
       L  1.21364e-01  7.81387e-01  2.17594e+00
6
# CELL(abcABC):  459.05226   459.05226   459.05226    90.00000    90.00000    90.00000  Step:          42  Bead:       0 x_centroid{angstrom}  cell{atomic_unit}
       C -4.12715e-01 -2.31944e-01  9.89116e-02
       O  7.74255e-01  3.46454e-01 -1.98841e-01
       H  1.36256e+00  8.26089e-01 -6.19037e-01
       H  1.03292e-01 -8.94170e-01  7.75759e-01
       L -4.92161e+00  1.24860e+00  6.95914e-01
       L -1.16963e-01  7.30663e-01  2.55294e+00
6
# CELL(abcABC):  459.05226   459.05226   459.05226    90.00000    90.00000    90.00000  Step:          43  Bead:       0 x_centroid{angstrom}  cell{atomic_unit}
       C -4.10952e-01 -2.32153e-01  9.74694e-02
       O  7.71144e-01  3.45967e-01 -1.97502e-01
       H  1.39222e+00  8.33519e-01 -6.26817e-01
       H  1.02072e-01 -8.91428e-01  7.79245e-01
       L -4.80169e+00  1.39062e+00  7.48746e-01
       L -3.35640e-01  6.68066e-01  2.90231e+00
6
# CELL(abcABC):  459.05226   459.05226   459.05226    90.00000    90.00000    90.00000  Step:          44  Bead:       0 x_centroid{angstrom}  cell{atomic_unit}
       C -4.08940e-01 -2.32107e-01  9.58289e-02
       O  7.68027e-01  3.45196e-01 -1.95840e-01
       H  1.42294e+00  8.46647e-01 -6.40428e-01
       H  9.68676e-02 -8.92878e-01  7.85864e-01
       L -4.65030e+00  1.50265e+00  7.56515e-01
       L -5.19553e-01  5.72400e-01  3.20734e+00
6
# CELL(abcABC):  459.05226   459.05226   459.05226    90.00000    90.00000    90.00000  Step:          45  Bead:       0 x_centroid{angstrom}  cell{atomic_unit}
       C -4.06650e-01 -2.31954e-01  9.42773e-02
       O  7.65136e-01  3.44445e-01 -1.94313e-01
       H  1.45105e+00  8.61190e-01 -6.56104e-01
       H  8.73720e-02 -8.97287e-01  7.95625e-01
       L -4.47478e+00  1.53607e+00  7.53258e-01
       L -7.21802e-01  4.94105e-01  3.49302e+00
6
# CELL(abcABC):  459.05226   459.05226   459.05226    90.00000    90.00000    90.00000  Step:          46  Bead:       0 x_centroid{angstrom}  cell{atomic_unit}
       C -4.03919e-01 -2.31693e-01  9.26816e-02
       O  7.62483e-01  3.43787e-01 -1.92868e-01
       H  1.47350e+00  8.74273e-01 -6.72469e-01
       H  7.44660e-02 -9.02990e-01  8.07922e-01
       L -4.27307e+00  1.56314e+00  7.88955e-01
       L -8.81691e-01  3.85324e-01  3.74844e+00
6
# CELL(abcABC):  459.05226   459.05226   459.05226    90.00000    90.00000    90.00000  Step:          47  Bead:       0 x_centroid{angstrom}  cell{atomic_unit}
       C -4.00879e-01 -2.31027e-01  9.10040e-02
       O  7.60243e-01  3.42985e-01 -1.91577e-01
       H  1.48760e+00  8.85289e-01 -6.87510e-01
       H  5.96794e-02 -9.09192e-01  8.22338e-01
       L -4.07028e+00  1.60983e+00  8.30452e-01
       L -1.05451e+00  2.74800e-01  3.90821e+00
6
# CELL(abcABC):  459.05226   459.05226   459.05226    90.00000    90.00000    90.00000  Step:          48  Bead:       0 x_centroid{angstrom}  cell{atomic_unit}
       C -3.97587e-01 -2.30292e-01  8.91259e-02
       O  7.58559e-01  3.42465e-01 -1.90487e-01
       H  1.49237e+00  8.93499e-01 -6.99179e-01
       H  4.23577e-02 -9.17854e-01  8.39003e-01
       L -3.80624e+00  1.63650e+00  8.33800e-01
       L -1.23607e+00  1.75998e-01  4.06564e+00
6
# CELL(abcABC):  459.05226   459.05226   459.05226    90.00000    90.00000    90.00000  Step:          49  Bead:       0 x_centroid{angstrom}  cell{atomic_unit}
       C -3.93989e-01 -2.29369e-01  8.74293e-02
       O  7.57504e-01  3.42173e-01 -1.89758e-01
       H  1.48497e+00  8.96353e-01 -7.08343e-01
       H  2.35706e-02 -9.27019e-01  8.56778e-01
       L -3.51635e+00  1.65944e+00  7.78477e-01
       L -1.39978e+00  5.35013e-02  4.20189e+00
6
# CELL(abcABC):  459.05226   459.05226   459.05226    90.00000    90.00000    90.00000  Step:          50  Bead:       0 x_centroid{angstrom}  cell{atomic_unit}
       C -3.90418e-01 -2.28179e-01  8.58278e-02
       O  7.57376e-01  3.42017e-01 -1.89200e-01
       H  1.46678e+00  8.93501e-01 -7.15002e-01
       H  1.09060e-03 -9.35832e-01  8.73627e-01
       L -3.09941e+00  1.71478e+00  7.81292e-01
       L -1.54645e+00 -6.88011e-02  4.26494e+00
6
# CELL(abcABC):  459.05226   459.05226   459.05226    90.00000    90.00000    90.00000  Step:          51  Bead:       0 x_centroid{angstrom}  cell{atomic_unit}
       C -3.86443e-01 -2.27225e-01  8.39494e-02
       O  7.57648e-01  3.42185e-01 -1.88469e-01
       H  1.43848e+00  8.86826e-01 -7.18881e-01
       H -2.24157e-02 -9.43158e-01  8.88241e-01
       L -2.69187e+00  1.73118e+00  7.80970e-01
       L -1.71578e+00 -1.56667e-01  4.33678e+00
6
# CELL(abcABC):  459.05226   459.05226   459.05226    90.00000    90.00000    90.00000  Step:          52  Bead:       0 x_centroid{angstrom}  cell{atomic_unit}
       C -3.82166e-01 -2.26195e-01  8.20156e-02
       O  7.58387e-01  3.42447e-01 -1.87766e-01
       H  1.40144e+00  8.76440e-01 -7.20916e-01
       H -4.82134e-02 -9.49156e-01  9.02135e-01
       L -2.29380e+00  1.78238e+00  7.61806e-01
       L -1.83718e+00 -2.75736e-01  4.40745e+00
6
# CELL(abcABC):  459.05226   459.05226   459.05226    90.00000    90.00000    90.00000  Step:          53  Bead:       0 x_centroid{angstrom}  cell{atomic_unit}
       C -3.78098e-01 -2.25237e-01  8.00798e-02
       O  7.59781e-01  3.42742e-01 -1.87071e-01
       H  1.35635e+00  8.64214e-01 -7.21321e-01
       H -7.38976e-02 -9.53012e-01  9.14578e-01
       L -1.83473e+00  1.85580e+00  7.30998e-01
       L -1.99802e+00 -4.18916e-01  4.41696e+00
6
# CELL(abcABC):  459.05226   459.05226   459.05226    90.00000    90.00000    90.00000  Step:          54  Bead:       0 x_centroid{angstrom}  cell{atomic_unit}
       C -3.74174e-01 -2.24140e-01  7.80684e-02
       O  7.61561e-01  3.42811e-01 -1.86195e-01
       H  1.30726e+00  8.52027e-01 -7.22423e-01
       H -9.99756e-02 -9.54933e-01  9.25821e-01
       L -1.37822e+00  1.90665e+00  7.03867e-01
       L -2.18014e+00 -5.59145e-01  4.31248e+00
6
# CELL(abcABC):  459.05226   459.05226   459.05226    90.00000    90.00000    90.00000  Step:          55  Bead:       0 x_centroid{angstrom}  cell{atomic_unit}
       C -3.70528e-01 -2.23138e-01  7.60412e-02
       O  7.63606e-01  3.42495e-01 -1.84877e-01
       H  1.25732e+00  8.44583e-01 -7.27530e-01
       H -1.26104e-01 -9.54351e-01  9.34274e-01
       L -8.69980e-01  1.93565e+00  7.06657e-01
       L -2.36669e+00 -6.82867e-01  4.10619e+00
6
# CELL(abcABC):  459.05226   459.05226   459.05226    90.00000    90.00000    90.00000  Step:          56  Bead:       0 x_centroid{angstrom}  cell{atomic_unit}
       C -3.66981e-01 -2.21979e-01  7.36783e-02
       O  7.65700e-01  3.41607e-01 -1.82722e-01
       H  1.20812e+00  8.42834e-01 -7.39918e-01
       H -1.52607e-01 -9.52256e-01  9.40756e-01
       L -3.65519e-01  1.94224e+00  6.92446e-01
       L -2.51535e+00 -8.25525e-01  3.85344e+00
6
# CELL(abcABC):  459.05226   459.05226   459.05226    90.00000    90.00000    90.00000  Step:          57  Bead:       0 x_centroid{angstrom}  cell{atomic_unit}
       C -3.63605e-01 -2.20782e-01  7.11632e-02
       O  7.67700e-01  3.39977e-01 -1.79505e-01
       H  1.16172e+00  8.50791e-01 -7.64078e-01
       H -1.78429e-01 -9.48506e-01  9.43979e-01
       L  1.57633e-01  1.88907e+00  6.66444e-01
       L -2.61603e+00 -9.46481e-01  3.58000e+00
6
# CELL(abcABC):  459.05226   459.05226   459.05226    90.00000    90.00000    90.00000  Step:          58  Bead:       0 x_centroid{angstrom}  cell{atomic_unit}
       C -3.60803e-01 -2.19719e-01  6.86591e-02
       O  7.69973e-01  3.37601e-01 -1.75478e-01
       H  1.11672e+00  8.69176e-01 -7.98901e-01
       H -2.03077e-01 -9.41738e-01  9.44843e-01
       L  6.07543e-01  1.85728e+00  7.03516e-01
       L -2.71204e+00 -1.09898e+00  3.31377e+00
6
# CELL(abcABC):  459.05226   459.05226   459.05226    90.00000    90.00000    90.00000  Step:          59  Bead:       0 x_centroid{angstrom}  cell{atomic_unit}
       C -3.57992e-01 -2.18540e-01  6.58522e-02
       O  7.72112e-01  3.34587e-01 -1.70494e-01
       H  1.07290e+00  8.94463e-01 -8.43708e-01
       H -2.26891e-01 -9.33173e-01  9.44094e-01
       L  1.05005e+00  1.84656e+00  7.81408e-01
       L -2.81824e+00 -1.20023e+00  3.03320e+00
6
# CELL(abcABC):  459.05226   459.05226   459.05226    90.00000    90.00000    90.00000  Step:          60  Bead:       0 x_centroid{angstrom}  cell{atomic_unit}
       C -3.55708e-01 -2.17198e-01  6.31091e-02
       O  7.74580e-01  3.31116e-01 -1.65152e-01
       H  1.02720e+00  9.21259e-01 -8.92884e-01
       H -2.47800e-01 -9.20816e-01  9.41309e-01
       L  1.51751e+00  1.86876e+00  8.71207e-01
       L -2.88464e+00 -1.29440e+00  2.69030e+00
6
# CELL(abcABC):  459.05226   459.05226   459.05226    90.00000    90.00000    90.00000  Step:          61  Bead:       0 x_centroid{angstrom}  cell{atomic_unit}
       C -3.53743e-01 -2.15855e-01  6.01660e-02
       O  7.77603e-01  3.27543e-01 -1.59663e-01
       H  9.75318e-01  9.47222e-01 -9.41583e-01
       H -2.67547e-01 -9.06090e-01  9.38147e-01
       L  1.94917e+00  1.93301e+00  9.41882e-01
       L -2.90254e+00 -1.31987e+00  2.26213e+00
6
# CELL(abcABC):  459.05226   459.05226   459.05226    90.00000    90.00000    90.00000  Step:          62  Bead:       0 x_centroid{angstrom}  cell{atomic_unit}
       C -3.52099e-01 -2.14513e-01  5.71772e-02
       O  7.80987e-01  3.24151e-01 -1.54417e-01
       H  9.18908e-01  9.68685e-01 -9.84700e-01
       H -2.84643e-01 -8.89752e-01  9.33828e-01
       L  2.31914e+00  1.99361e+00  9.77007e-01
       L -2.88683e+00 -1.30344e+00  1.81132e+00
6
# CELL(abcABC):  459.05226   459.05226   459.05226    90.00000    90.00000    90.00000  Step:          63  Bead:       0 x_centroid{angstrom}  cell{atomic_unit}
       C -3.51016e-01 -2.13213e-01  5.38183e-02
       O  7.84888e-01  3.21181e-01 -1.49376e-01
       H  8.58269e-01  9.83420e-01 -1.02010e+00
       H -2.99033e-01 -8.72883e-01  9.29468e-01
       L  2.66312e+00  2.03065e+00  9.99991e-01
       L -2.87013e+00 -1.25807e+00  1.34903e+00
6
# CELL(abcABC):  459.05226   459.05226   459.05226    90.00000    90.00000    90.00000  Step:          64  Bead:       0 x_centroid{angstrom}  cell{atomic_unit}
       C -3.50307e-01 -2.12008e-01  5.00208e-02
       O  7.88994e-01  3.18712e-01 -1.44624e-01
       H  7.96105e-01  9.90963e-01 -1.04581e+00
       H -3.10681e-01 -8.55642e-01  9.25231e-01
       L  2.97512e+00  2.05374e+00  1.02471e+00
       L -2.84876e+00 -1.19651e+00  8.93822e-01
6
# CELL(abcABC):  459.05226   459.05226   459.05226    90.00000    90.00000    90.00000  Step:          65  Bead:       0 x_centroid{angstrom}  cell{atomic_unit}
       C -3.50034e-01 -2.10572e-01  4.59794e-02
       O  7.93279e-01  3.16668e-01 -1.40368e-01
       H  7.33270e-01  9.89480e-01 -1.06189e+00
       H -3.19296e-01 -8.38876e-01  9.22146e-01
       L  3.20307e+00  2.07679e+00  1.02653e+00
       L -2.73210e+00 -1.11503e+00  4.76607e-01
6
# CELL(abcABC):  459.05226   459.05226   459.05226    90.00000    90.00000    90.00000  Step:          66  Bead:       0 x_centroid{angstrom}  cell{atomic_unit}
       C -3.50162e-01 -2.09023e-01  4.17580e-02