6
# CELL(abcABC):  459.05226   459.05226   459.05226    90.00000    90.00000    90.00000  Step:           0  Bead:       0 x_centroid{angstrom}  cell{atomic_unit}
       C -3.39887e-01 -1.13437e-01  8.06659e-02
       O  8.43483e-01  2.62672e-01 -1.81512e-01
       H -7.35799e-02  8.16467e-01 -6.61432e-01
       H -4.30016e-01 -9.65701e-01  7.62278e-01
       L  0.00000e+00  0.00000e+00  0.00000e+00
       L  0.00000e+00  0.00000e+00  0.00000e+00
6
# CELL(abcABC):  459.05226   459.05226   459.05226    90.00000    90.00000    90.00000  Step:           1  Bead:       0 x_centroid{angstrom}  cell{atomic_unit}
       C -3.38957e-01 -1.16138e-01  7.97683e-02
       O  8.42944e-01  2.65402e-01 -1.80690e-01
       H -7.41086e-02  8.15752e-01 -6.60193e-01
       H -4.31785e-01 -9.76143e-01  7.58580e-01
       L -2.49746e-01 -6.17051e-01 -2.54371e-01
       L -1.58821e-01  6.06420e-01  4.46101e-01
6
# CELL(abcABC):  459.05226   459.05226   459.05226    90.00000    90.00000    90.00000  Step:           2  Bead:       0 x_centroid{angstrom}  cell{atomic_unit}
       C -3.37762e-01 -1.18772e-01  7.90034e-02
       O  8.42178e-01  2.68070e-01 -1.79971e-01
       H -7.54354e-02  8.14850e-01 -6.57720e-01
       H -4.32333e-01 -9.86184e-01  7.53727e-01
       L -5.06003e-01 -1.23050e+00 -5.32385e-01
       L -2.87757e-01  1.18399e+00  8.59213e-01
6
# CELL(abcABC):  459.05226   459.05226   459.05226    90.00000    90.00000    90.00000  Step:           3  Bead:       0 x_centroid{angstrom}  cell{atomic_unit}
       C -3.36629e-01 -1.21393e-01  7.84491e-02
       O  8.41552e-01  2.70570e-01 -1.79324e-01
       H -7.73403e-02  8.15586e-01 -6.54898e-01
       H -4.33784e-01 -9.95368e-01  7.47172e-01
       L -7.74811e-01 -1.83696e+00 -8.06682e-01
       L -3.86097e-01  1.78211e+00  1.26390e+00
6
# CELL(abcABC):  459.05226   459.05226   459.05226    90.00000    90.00000    90.00000  Step:           4  Bead:       0 x_centroid{angstrom}  cell{atomic_unit}
       C -3.35398e-01 -1.24029e-01  7.80046e-02
       O  8.40981e-01  2.73108e-01 -1.78694e-01
       H -8.01216e-02  8.16386e-01 -6.51474e-01
       H -4.36373e-01 -1.00500e+00  7.38995e-01
       L -1.07980e+00 -2.41932e+00 -1.06661e+00
       L -5.18421e-01  2.29369e+00  1.62420e+00
6
# CELL(abcABC):  459.05226   459.05226   459.05226    90.00000    90.00000    90.00000  Step:           5  Bead:       0 x_centroid{angstrom}  cell{atomic_unit}
       C -3.34099e-01 -1.26623e-01  7.79397e-02
       O  8.40349e-01  2.75601e-01 -1.78264e-01
       H -8.33884e-02  8.17174e-01 -6.47989e-01
       H -4.38318e-01 -1.01439e+00  7.29408e-01
       L -1.41579e+00 -2.99604e+00 -1.30403e+00
       L -6.18622e-01  2.75772e+00  1.93564e+00
6
# CELL(abcABC):  459.05226   459.05226   459.05226    90.00000    90.00000    90.00000  Step:           6  Bead:       0 x_centroid{angstrom}  cell{atomic_unit}
       C -3.32756e-01 -1.28935e-01  7.81827e-02
       O  8.39671e-01  2.78000e-01 -1.78067e-01
       H -8.73258e-02  8.16383e-01 -6.44586e-01
       H -4.39376e-01 -1.02408e+00  7.20011e-01
       L -1.75671e+00 -3.54380e+00 -1.61754e+00
       L -7.24003e-01  3.20233e+00  2.21660e+00
6
# CELL(abcABC):  459.05226   459.05226   459.05226    90.00000    90.00000    90.00000  Step:           7  Bead:       0 x_centroid{angstrom}  cell{atomic_unit}
       C -3.31912e-01 -1.31368e-01  7.85189e-02
       O  8.39360e-01  2.80499e-01 -1.77977e-01
       H -9.13594e-02  8.13862e-01 -6.40411e-01
       H -4.40235e-01 -1.03219e+00  7.10443e-01
       L -2.03750e+00 -4.04867e+00 -1.88724e+00
       L -8.75017e-01  3.63866e+00  2.40161e+00
6
# CELL(abcABC):  459.05226   459.05226   459.05226    90.00000    90.00000    90.00000  Step:           8  Bead:       0 x_centroid{angstrom}  cell{atomic_unit}
       C -3.31097e-01 -1.34303e-01  7.87056e-02
       O  8.39173e-01  2.83300e-01 -1.77719e-01
       H -9.76752e-02  8.11354e-01 -6.36715e-01
       H -4.40412e-01 -1.03913e+00  7.00527e-01
       L -2.32446e+00 -4.50184e+00 -2.18891e+00
       L -1.05169e+00  4.02469e+00  2.52451e+00
6
# CELL(abcABC):  459.05226   459.05226   459.05226    90.00000    90.00000    90.00000  Step:           9  Bead:       0 x_centroid{angstrom}  cell{atomic_unit}
       C -3.30496e-01 -1.37292e-01  7.89521e-02
       O  8.39110e-01  2.86116e-01 -1.77419e-01
       H -1.04412e-01  8.08640e-01 -6.33574e-01
       H -4.39560e-01 -1.04548e+00  6.89802e-01
       L -2.60267e+00 -4.90743e+00 -2.50837e+00
       L -1.26101e+00  4.39824e+00  2.61225e+00
6
# CELL(abcABC):  459.05226   459.05226   459.05226    90.00000    90.00000    90.00000  Step:          10  Bead:       0 x_centroid{angstrom}  cell{atomic_unit}
       C -3.29740e-01 -1.40112e-01  7.87808e-02
       O  8.38876e-01  2.88755e-01 -1.76664e-01
       H -1.11478e-01  8.06255e-01 -6.31511e-01
       H -4.37564e-01 -1.05136e+00  6.77936e-01
       L -2.85497e+00 -5.27102e+00 -2.82979e+00
       L -1.44472e+00  4.73391e+00  2.69510e+00
6
# CELL(abcABC):  459.05226   459.05226   459.05226    90.00000    90.00000    90.00000  Step:          11  Bead:       0 x_centroid{angstrom}  cell{atomic_unit}
       C -3.28941e-01 -1.42797e-01  7.87369e-02
       O  8.38592e-01  2.91254e-01 -1.75942e-01
       H -1.19318e-01  8.04122e-01 -6.30378e-01
       H -4.34565e-01 -1.05687e+00  6.66022e-01
       L -3.01594e+00 -5.62451e+00 -3.12571e+00
       L -1.59411e+00  5.02181e+00  2.69681e+00
6
# CELL(abcABC):  459.05226   459.05226   459.05226    90.00000    90.00000    90.00000  Step:          12  Bead:       0 x_centroid{angstrom}  cell{atomic_unit}
       C -3.28058e-01 -1.45245e-01  7.87647e-02
       O  8.38269e-01  2.93518e-01 -1.75281e-01
       H -1.29173e-01  8.02945e-01 -6.30470e-01
       H -4.30021e-01 -1.06244e+00  6.55407e-01
       L -3.08632e+00 -5.90904e+00 -3.31586e+00
       L -1.67187e+00  5.25685e+00  2.67894e+00
6
# CELL(abcABC):  459.05226   459.05226   459.05226    90.00000    90.00000    90.00000  Step:          13  Bead:       0 x_centroid{angstrom}  cell{atomic_unit}
       C -3.26976e-01 -1.47600e-01  7.86815e-02
       O  8.37919e-01  2.95659e-01 -1.74511e-01
       H -1.42477e-01  8.01682e-01 -6.31016e-01
       H -4.24006e-01 -1.06710e+00  6.44794e-01
       L -3.09781e+00 -6.11102e+00 -3.46660e+00
       L -1.74313e+00  5.45350e+00  2.68515e+00
6
# CELL(abcABC):  459.05226   459.05226   459.05226    90.00000    90.00000    90.00000  Step:          14  Bead:       0 x_centroid{angstrom}  cell{atomic_unit}
       C -3.25584e-01 -1.49825e-01  7.83506e-02
       O  8.37467e-01  2.97763e-01 -1.73723e-01
       H -1.57980e-01  8.00055e-01 -6.30282e-01
       H -4.17946e-01 -1.07236e+00  6.35585e-01
       L -3.08822e+00 -6.24055e+00 -3.59778e+00
       L -1.72369e+00  5.61102e+00  2.64690e+00
6
# CELL(abcABC):  459.05226   459.05226   459.05226    90.00000    90.00000    90.00000  Step:          15  Bead:       0 x_centroid{angstrom}  cell{atomic_unit}
       C -3.24138e-01 -1.51652e-01  7.77091e-02
       O  8.37148e-01  2.99705e-01 -1.72853e-01
       H -1.76587e-01  7.96613e-01 -6.28981e-01
       H -4.11556e-01 -1.07801e+00  6.28262e-01
       L -3.06055e+00 -6.30492e+00 -3.70563e+00
       L -1.64680e+00  5.72539e+00  2.51410e+00
6
# CELL(abcABC):  459.05226   459.05226   459.05226    90.00000    90.00000    90.00000  Step:          16  Bead:       0 x_centroid{angstrom}  cell{atomic_unit}
       C -3.22199e-01 -1.53204e-01  7.68249e-02
       O  8.36707e-01  3.01604e-01 -1.71910e-01
       H -2.00045e-01  7.91990e-01 -6.26943e-01
       H -4.04264e-01 -1.08505e+00  6.21896e-01
       L -3.05186e+00 -6.30015e+00 -3.75161e+00
       L -1.54423e+00  5.77824e+00  2.35619e+00
6
# CELL(abcABC):  459.05226   459.05226   459.05226    90.00000    90.00000    90.00000  Step:          17  Bead:       0 x_centroid{angstrom}  cell{atomic_unit}
       C -3.19713e-01 -1.54289e-01  7.54909e-02
       O  8.36163e-01  3.03165e-01 -1.70807e-01
       H -2.28735e-01  7.87839e-01 -6.23291e-01
       H -3.96632e-01 -1.09282e+00  6.16726e-01
       L -3.02357e+00 -6.24488e+00 -3.79798e+00
       L -1.45312e+00  5.81975e+00  2.21571e+00
6
# CELL(abcABC):  459.05226   459.05226   459.05226    90.00000    90.00000    90.00000  Step:          18  Bead:       0 x_centroid{angstrom}  cell{atomic_unit}
       C -3.17003e-01 -1.55073e-01  7.39157e-02
       O  8.35931e-01  3.04548e-01 -1.69588e-01
       H -2.64693e-01  7.83514e-01 -6.17854e-01
       H -3.89360e-01 -1.10116e+00  6.10801e-01
       L -3.01515e+00 -6.10581e+00 -3.79507e+00
       L -1.31242e+00  5.77374e+00  2.05585e+00
6
# CELL(abcABC):  459.05226   459.05226   459.05226    90.00000    90.00000    90.00000  Step:          19  Bead:       0 x_centroid{angstrom}  cell{atomic_unit}
       C -3.14099e-01 -1.55213e-01  7.18023e-02
       O  8.36143e-01  3.05509e-01 -1.68074e-01
       H -3.09594e-01  7.77878e-01 -6.11184e-01
       H -3.82500e-01 -1.10915e+00  6.05307e-01
       L -2.99366e+00 -5.92987e+00 -3.69578e+00
       L -1.20676e+00  5.69835e+00  1.90323e+00
6
# CELL(abcABC):  459.05226   459.05226   459.05226    90.00000    90.00000    90.00000  Step:          20  Bead:       0 x_centroid{angstrom}  cell{atomic_unit}
       C -3.10523e-01 -1.54876e-01  6.91644e-02
       O  8.36591e-01  3.06110e-01 -1.66111e-01
       H -3.64510e-01  7.69982e-01 -6.04493e-01
       H -3.77375e-01 -1.11487e+00  5.98858e-01
       L -2.94315e+00 -5.72334e+00 -3.50274e+00
       L -1.10768e+00  5.58948e+00  1.77226e+00
6
# CELL(abcABC):  459.05226   459.05226   459.05226    90.00000    90.00000    90.00000  Step:          21  Bead:       0 x_centroid{angstrom}  cell{atomic_unit}
       C -3.05979e-01 -1.53720e-01  6.60485e-02
       O  8.37100e-01  3.06301e-01 -1.63760e-01
       H -4.29602e-01  7.58384e-01 -5.96853e-01
       H -3.74607e-01 -1.12008e+00  5.91066e-01
       L -2.87998e+00 -5.47663e+00 -3.36277e+00
       L -1.01173e+00  5.35767e+00  1.56802e+00
6
# CELL(abcABC):  459.05226   459.05226   459.05226    90.00000    90.00000    90.00000  Step:          22  Bead:       0 x_centroid{angstrom}  cell{atomic_unit}
       C -3.00474e-01 -1.51817e-01  6.24229e-02
       O  8.37759e-01  3.06033e-01 -1.61057e-01
       H -5.06166e-01  7.43189e-01 -5.88800e-01
       H -3.74217e-01 -1.12334e+00  5.83324e-01
       L -2.79264e+00 -5.20753e+00 -3.17885e+00
       L -8.83128e-01  5.12384e+00  1.36683e+00
6
# CELL(abcABC):  459.05226   459.05226   459.05226    90.00000    90.00000    90.00000  Step:          23  Bead:       0 x_centroid{angstrom}  cell{atomic_unit}
       C -2.93774e-01 -1.49476e-01  5.87061e-02
       O  8.38470e-01  3.05574e-01 -1.58266e-01
       H -5.94587e-01  7.24164e-01 -5.79599e-01
       H -3.77058e-01 -1.12492e+00  5.74074e-01
       L -2.68703e+00 -4.88747e+00 -2.93477e+00
       L -7.33286e-01  4.83063e+00  1.17045e+00
6
# CELL(abcABC):  459.05226   459.05226   459.05226    90.00000    90.00000    90.00000  Step:          24  Bead:       0 x_centroid{angstrom}  cell{atomic_unit}
       C -2.85836e-01 -1.46312e-01  5.43908e-02
       O  8.39129e-01  3.04662e-01 -1.55182e-01
       H -6.94440e-01  7.00368e-01 -5.67055e-01
       H -3.82440e-01 -1.12439e+00  5.63957e-01
       L -2.57302e+00 -4.48987e+00 -2.67523e+00
       L -5.03898e-01  4.47573e+00  9.95541e-01
6
# CELL(abcABC):  459.05226   459.05226   459.05226    90.00000    90.00000    90.00000  Step:          25  Bead:       0 x_centroid{angstrom}  cell{atomic_unit}
       C -2.77048e-01 -1.42469e-01  4.94613e-02
       O  8.39761e-01  3.03385e-01 -1.51856e-01
       H -8.02028e-01  6.70621e-01 -5.50652e-01
       H -3.89752e-01 -1.12021e+00  5.53443e-01
       L -2.45671e+00 -4.03017e+00 -2.37128e+00
       L -3.36647e-01  4.08028e+00  8.05731e-01
6
# CELL(abcABC):  459.05226   459.05226   459.05226    90.00000    90.00000    90.00000  Step:          26  Bead:       0 x_centroid{angstrom}  cell{atomic_unit}
       C -2.67637e-01 -1.37591e-01  4.41724e-02
       O  8.40476e-01  3.01605e-01 -1.48353e-01
       H -9.16013e-01  6.34642e-01 -5.31821e-01
       H -3.99475e-01 -1.11411e+00  5.41936e-01
       L -2.26040e+00 -3.54488e+00 -2.01644e+00
       L -1.68445e-01  3.62245e+00  6.24031e-01
6
# CELL(abcABC):  459.05226   459.05226   459.05226    90.00000    90.00000    90.00000  Step:          27  Bead:       0 x_centroid{angstrom}  cell{atomic_unit}
       C -2.57706e-01 -1.32077e-01  3.84342e-02
       O  8.40971e-01  2.99588e-01 -1.44696e-01
       H -1.03133e+00  5.92070e-01 -5.08711e-01
       H -4.10561e-01 -1.10526e+00  5.29036e-01
       L -2.05774e+00 -3.00217e+00 -1.64187e+00
       L  2.85337e-02  3.17419e+00  4.52624e-01
6
# CELL(abcABC):  459.05226   459.05226   459.05226    90.00000    90.00000    90.00000  Step:          28  Bead:       0 x_centroid{angstrom}  cell{atomic_unit}
       C -2.47431e-01 -1.25907e-01  3.23250e-02
       O  8.41287e-01  2.97380e-01 -1.40931e-01
       H -1.14536e+00  5.44161e-01 -4.81613e-01
       H -4.24225e-01 -1.09586e+00  5.14874e-01
       L -1.80809e+00 -2.43875e+00 -1.26808e+00
       L  2.22802e-01  2.66858e+00  2.61350e-01
6
# CELL(abcABC):  459.05226   459.05226   459.05226    90.00000    90.00000    90.00000  Step:          29  Bead:       0 x_centroid{angstrom}  cell{atomic_unit}
       C -2.37414e-01 -1.19482e-01  2.57208e-02
       O  8.41687e-01  2.95236e-01 -1.36941e-01
       H -1.25528e+00  4.91100e-01 -4.51105e-01
       H -4.40289e-01 -1.08537e+00  4.99654e-01
       L -1.52914e+00 -1.84320e+00 -9.40006e-01
       L  4.23007e-01  2.13809e+00  6.82621e-02
6
# CELL(abcABC):  459.05226   459.05226   459.05226    90.00000    90.00000    90.00000  Step:          30  Bead:       0 x_centroid{angstrom}  cell{atomic_unit}
       C -2.28318e-01 -1.12964e-01  1.88942e-02
       O  8.42346e-01  2.93303e-01 -1.33009e-01
       H -1.35841e+00  4.33425e-01 -4.17035e-01
       H -4.56254e-01 -1.07469e+00  4.84459e-01
       L -1.26036e+00 -1.28221e+00 -6.66790e-01
       L  6.16195e-01  1.61456e+00 -9.15436e-02
6
# CELL(abcABC):  459.05226   459.05226   459.05226    90.00000    90.00000    90.00000  Step:          31  Bead:       0 x_centroid{angstrom}  cell{atomic_unit}
       C -2.20554e-01 -1.06340e-01  1.17633e-02
       O  8.43420e-01  2.91491e-01 -1.29157e-01
       H -1.45230e+00  3.72943e-01 -3.79746e-01
       H -4.72238e-01 -1.06442e+00  4.70920e-01
       L -9.22972e-01 -6.88653e-01 -3.51786e-01
       L  8.41206e-01  1.08035e+00 -2.53353e-01
6
# CELL(abcABC):  459.05226   459.05226   459.05226    90.00000    90.00000    90.00000  Step:          32  Bead:       0 x_centroid{angstrom}  cell{atomic_unit}
       C -2.14241e-01 -1.00190e-01  4.42101e-03
       O  8.44820e-01  2.90118e-01 -1.25266e-01
       H -1.53575e+00  3.10677e-01 -3.40747e-01
       H -4.86586e-01 -1.05362e+00  4.57577e-01
       L -4.63859e-01 -1.72053e-01 -4.70302e-02
       L  1.05715e+00  5.26698e-01 -4.32151e-01
6
# CELL(abcABC):  459.05226   459.05226   459.05226    90.00000    90.00000    90.00000  Step:          33  Bead:       0 x_centroid{angstrom}  cell{atomic_unit}
       C -2.09576e-01 -9.45041e-02 -2.71126e-03
       O  8.46627e-01  2.89290e-01 -1.21619e-01
       H -1.60852e+00  2.47058e-01 -3.01637e-01
       H -4.98473e-01 -1.04458e+00  4.45456e-01
       L -3.49709e-02  3.32714e-01  2.71293e-01
       L  1.29723e+00 -5.35079e-02 -5.58071e-01
6
# CELL(abcABC):  459.05226   459.05226   459.05226    90.00000    90.00000    90.00000  Step:          34  Bead:       0 x_centroid{angstrom}  cell{atomic_unit}
       C -2.06494e-01 -8.92989e-02 -9.71995e-03
       O  8.48887e-01  2.88715e-01 -1.18128e-01
       H -1.67025e+00  1.86402e-01 -2.63690e-01
       H -5.09673e-01 -1.03680e+00  4.35549e-01
       L  3.51579e-01  8.14394e-01  5.50021e-01
       L  1.53576e+00 -5.74916e-01 -7.23192e-01
6
# CELL(abcABC):  459.05226   459.05226   459.05226    90.00000    90.00000    90.00000  Step:          35  Bead:       0 x_centroid{angstrom}  cell{atomic_unit}
       C -2.05466e-01 -8.43708e-02 -1.61826e-02
       O  8.51772e-01  2.88264e-01 -1.15126e-01
       H -1.72153e+00  1.29024e-01 -2.26351e-01
       H -5.16804e-01 -1.03091e+00  4.27510e-01
       L  8.08522e-01  1.24212e+00  8.07773e-01
       L  1.75961e+00 -1.13978e+00 -8.64158e-01
6
# CELL(abcABC):  459.05226   459.05226   459.05226    90.00000    90.00000    90.00000  Step:          36  Bead:       0 x_centroid{angstrom}  cell{atomic_unit}
       C -2.06308e-01 -8.03383e-02 -2.22734e-02
       O  8.55156e-01  2.88359e-01 -1.12252e-01
       H -1.76105e+00  7.41907e-02 -1.91609e-01
       H -5.21384e-01 -1.02558e+00  4.19649e-01
       L  1.33238e+00  1.70456e+00  1.11254e+00
       L  2.00728e+00 -1.71383e+00 -1.03768e+00
6
# CELL(abcABC):  459.05226   459.05226   459.05226    90.00000    90.00000    90.00000  Step:          37  Bead:       0 x_centroid{angstrom}  cell{atomic_unit}
       C -2.08856e-01 -7.71498e-02 -2.80149e-02
       O  8.58982e-01  2.88836e-01 -1.09598e-01
       H -1.79100e+00  2.40529e-02 -1.57721e-01
       H -5.22236e-01 -1.02094e+00  4.12000e-01
       L  1.85125e+00  2.17703e+00  1.35513e+00
       L  2.26164e+00 -2.30644e+00 -1.19023e+00
6
# CELL(abcABC):  459.05226   459.05226   459.05226    90.00000    90.00000    90.00000  Step:          38  Bead:       0 x_centroid{angstrom}  cell{atomic_unit}
       C -2.13086e-01 -7.49503e-02 -3.33887e-02
       O  8.63115e-01  2.89733e-01 -1.07154e-01
       H -1.80977e+00 -2.04436e-02 -1.25521e-01
       H -5.19082e-01 -1.01680e+00  4.04984e-01
       L  2.33844e+00  2.58294e+00  1.60441e+00
       L  2.54514e+00 -2.89069e+00 -1.34583e+00
6
# CELL(abcABC):  459.05226   459.05226   459.05226    90.00000    90.00000    90.00000  Step:          39  Bead:       0 x_centroid{angstrom}  cell{atomic_unit}
       C -2.18633e-01 -7.36727e-02 -3.83401e-02
       O  8.67492e-01  2.91090e-01 -1.04859e-01
       H -1.82004e+00 -5.86656e-02 -9.65662e-02
       H -5.12586e-01 -1.01524e+00  3.98573e-01
       L  2.81540e+00  3.03321e+00  1.81379e+00
       L  2.79064e+00 -3.50772e+00 -1.47629e+00
6
# CELL(abcABC):  459.05226   459.05226   459.05226    90.00000    90.00000    90.00000  Step:          40  Bead:       0 x_centroid{angstrom}  cell{atomic_unit}
       C -2.25312e-01 -7.32644e-02 -4.27745e-02
       O  8.71913e-01  2.92763e-01 -1.02729e-01
       H -1.82235e+00 -8.85772e-02 -7.11438e-02
       H -5.01269e-01 -1.01663e+00  3.92097e-01
       L  3.28191e+00  3.45655e+00  2.03399e+00
       L  3.07651e+00 -4.14533e+00 -1.55915e+00
6
# CELL(abcABC):  459.05226   459.05226   459.05226    90.00000    90.00000    90.00000  Step:          41  Bead:       0 x_centroid{angstrom}  cell{atomic_unit}
       C -2.32975e-01 -7.38708e-02 -4.66797e-02
       O  8.76263e-01  2.94887e-01 -1.00706e-01
       H -1.81703e+00 -1.11960e-01 -4.90942e-02
       H -4.84683e-01 -1.01960e+00  3.84433e-01
       L  3.72425e+00  3.86620e+00  2.21372e+00
       L  3.29780e+00 -4.81424e+00 -1.66006e+00
6
# CELL(abcABC):  459.05226   459.05226   459.05226    90.00000    90.00000    90.00000  Step:          42  Bead:       0 x_centroid{angstrom}  cell{atomic_unit}
       C -2.41338e-01 -7.55015e-02 -4.99842e-02
       O  8.80304e-01  2.97422e-01 -9.88696e-02
       H -1.80266e+00 -1.26883e-01 -3.04294e-02
       H -4.63876e-01 -1.02536e+00  3.75979e-01
       L  4.15770e+00  4.26467e+00  2.35450e+00
       L  3.45877e+00 -5.43793e+00 -1.77838e+00
6
# CELL(abcABC):  459.05226   459.05226   459.05226    90.00000    90.00000    90.00000  Step:          43  Bead:       0 x_centroid{angstrom}  cell{atomic_unit}
       C -2.50132e-01 -7.79826e-02 -5.25995e-02
       O  8.84020e-01  3.00308e-01 -9.73194e-02
       H -1.78027e+00 -1.33486e-01 -1.55386e-02
       H -4.40688e-01 -1.03486e+00  3.67664e-01
       L  4.52708e+00  4.62506e+00  2.44538e+00
       L  3.50387e+00 -6.06150e+00 -1.90195e+00
6
# CELL(abcABC):  459.05226   459.05226   459.05226    90.00000    90.00000    90.00000  Step:          44  Bead:       0 x_centroid{angstrom}  cell{atomic_unit}
       C -2.59469e-01 -8.12397e-02 -5.50734e-02
       O  8.87461e-01  3.03565e-01 -9.56588e-02
       H -1.74950e+00 -1.32065e-01 -4.60923e-03
       H -4.15008e-01 -1.04904e+00  3.59881e-01
       L  4.89290e+00  4.92497e+00  2.48386e+00
       L  3.52038e+00 -6.60126e+00 -1.99018e+00
6
# CELL(abcABC):  459.05226   459.05226   459.05226    90.00000    90.00000    90.00000  Step:          45  Bead:       0 x_centroid{angstrom}  cell{atomic_unit}
       C -2.69004e-01 -8.50621e-02 -5.67994e-02
       O  8.90273e-01  3.06886e-01 -9.43011e-02
       H -1.70947e+00 -1.22203e-01  1.37783e-03
       H -3.86174e-01 -1.06598e+00  3.52902e-01
       L  5.18115e+00  5.17931e+00  2.55062e+00
       L  3.42839e+00 -7.01558e+00 -2.04125e+00
6
# CELL(abcABC):  459.05226   459.05226   459.05226    90.00000    90.00000    90.00000  Step:          46  Bead:       0 x_centroid{angstrom}  cell{atomic_unit}
       C -2.78502e-01 -8.94103e-02 -5.79291e-02
       O  8.92469e-01  3.10233e-01 -9.32725e-02
       H -1.66079e+00 -1.04856e-01  4.07290e-03
       H -3.56594e-01 -1.08456e+00  3.47327e-01
       L  5.42052e+00  5.40744e+00  2.56510e+00
       L  3.30015e+00 -7.41419e+00 -2.03056e+00
6
# CELL(abcABC):  459.05226   459.05226   459.05226    90.00000    90.00000    90.00000  Step:          47  Bead:       0 x_centroid{angstrom}  cell{atomic_unit}
       C -2.87941e-01 -9.43581e-02 -5.85284e-02
       O  8.93853e-01  3.13650e-01 -9.23544e-02
       H -1.60250e+00 -7.85139e-02  1.93544e-03
       H -3.24387e-01 -1.10608e+00  3.42043e-01
       L  5.61595e+00  5.59332e+00  2.52649e+00
       L  3.10427e+00 -7.76735e+00 -2.01133e+00
6
# CELL(abcABC):  459.05226   459.05226   459.05226    90.00000    90.00000    90.00000  Step:          48  Bead:       0 x_centroid{angstrom}  cell{atomic_unit}
       C -2.96942e-01 -9.99536e-02 -5.83271e-02
       O  8.94270e-01  3.17167e-01 -9.17702e-02
       H -1.53480e+00 -4.46551e-02 -4.00174e-03
       H -2.91393e-01 -1.12906e+00  3.36333e-01
       L  5.73943e+00  5.75778e+00  2.43783e+00
       L  2.91437e+00 -8.00152e+00 -1.96744e+00
6
# CELL(abcABC):  459.05226   459.05226   459.05226    90.00000    90.00000    90.00000  Step:          49  Bead:       0 x_centroid{angstrom}  cell{atomic_unit}
       C -3.05068e-01 -1.06350e-01 -5.75858e-02
       O  8.93520e-01  3.20851e-01 -9.11550e-02
       H -1.46012e+00 -3.83235e-03 -1.46476e-02
       H -2.57293e-01 -1.15206e+00  3.28426e-01
       L  5.79518e+00  5.82845e+00  2.28083e+00
       L  2.73539e+00 -8.19024e+00 -1.89424e+00
6
# CELL(abcABC):  459.05226   459.05226   459.05226    90.00000    90.00000    90.00000  Step:          50  Bead:       0 x_centroid{angstrom}  cell{atomic_unit}
       C -3.12311e-01 -1.13389e-01 -5.62599e-02
       O  8.91828e-01  3.24469e-01 -9.07259e-02
       H -1.38050e+00  4.29349e-02 -2.82447e-02
       H -2.23604e-01 -1.17230e+00  3.19468e-01
       L  5.81853e+00  5.81672e+00  2.08013e+00
       L  2.48967e+00 -8.34627e+00 -1.79654e+00
6
# CELL(abcABC):  459.05226   459.05226   459.05226    90.00000    90.00000    90.00000  Step:          51  Bead:       0 x_centroid{angstrom}  cell{atomic_unit}
       C -3.17897e-01 -1.20900e-01 -5.45206e-02
       O  8.89042e-01  3.28117e-01 -9.02850e-02
       H -1.30146e+00  9.32601e-02 -4.52014e-02
       H -1.91688e-01 -1.19091e+00  3.08811e-01
       L  5.78504e+00  5.71959e+00  1.82915e+00
       L  2.20247e+00 -8.47837e+00 -1.74812e+00
6
# CELL(abcABC):  459.05226   459.05226   459.05226    90.00000    90.00000    90.00000  Step:          52  Bead:       0 x_centroid{angstrom}  cell{atomic_unit}
       C -3.21022e-01 -1.29226e-01 -5.25106e-02
       O  8.85081e-01  3.31793e-01 -8.98101e-02
       H -1.23028e+00  1.49617e-01 -6.41012e-02
       H -1.62512e-01 -1.20626e+00  2.96354e-01
       L  5.65731e+00  5.54936e+00  1.51443e+00
       L  1.88673e+00 -8.54239e+00 -1.67654e+00
6
# CELL(abcABC):  459.05226   459.05226   459.05226    90.00000    90.00000    90.00000  Step:          53  Bead:       0 x_centroid{angstrom}  cell{atomic_unit}
       C -3.20692e-01 -1.38337e-01 -5.02710e-02
       O  8.79878e-01  3.35257e-01 -8.91863e-02
       H -1.17702e+00  2.14565e-01 -8.60279e-02
       H -1.36789e-01 -1.21751e+00  2.81803e-01
       L  5.46304e+00  5.33409e+00  1.20078e+00
       L  1.48644e+00 -8.55589e+00 -1.56942e+00
6
# CELL(abcABC):  459.05226   459.05226   459.05226    90.00000    90.00000    90.00000  Step:          54  Bead:       0 x_centroid{angstrom}  cell{atomic_unit}
       C -3.16570e-01 -1.48219e-01 -4.74552e-02
       O  8.73419e-01  3.38451e-01 -8.87168e-02
       H -1.14299e+00  2.90336e-01 -1.09817e-01
       H -1.17048e-01 -1.22615e+00  2.64711e-01
       L  5.17052e+00  5.08963e+00  8.57125e-01
       L  1.11986e+00 -8.45770e+00 -1.45303e+00
6
# CELL(abcABC):  459.05226   459.05226   459.05226    90.00000    90.00000    90.00000  Step:          55  Bead:       0 x_centroid{angstrom}  cell{atomic_unit}
       C -3.09193e-01 -1.59073e-01 -4.43769e-02
       O  8.65819e-01  3.41638e-01 -8.81749e-02
       H -1.12488e+00  3.74977e-01 -1.35635e-01
       H -1.02004e-01 -1.23192e+00  2.45301e-01
       L  4.81301e+00  4.76017e+00  5.85770e-01
       L  6.89800e-01 -8.34090e+00 -1.28327e+00
6
# CELL(abcABC):  459.05226   459.05226   459.05226    90.00000    90.00000    90.00000  Step:          56  Bead:       0 x_centroid{angstrom}  cell{atomic_unit}
       C -2.99374e-01 -1.70612e-01 -4.06287e-02
       O  8.57569e-01  3.44831e-01 -8.78769e-02
       H -1.11874e+00  4.64725e-01 -1.63442e-01
       H -9.37806e-02 -1.23475e+00  2.23717e-01
       L  4.41821e+00  4.37053e+00  3.11150e-01
       L  3.00005e-01 -8.15393e+00 -1.01596e+00
6
# CELL(abcABC):  459.05226   459.05226   459.05226    90.00000    90.00000    90.00000  Step:          57  Bead:       0 x_centroid{angstrom}  cell{atomic_unit}
       C -2.87612e-01 -1.81946e-01 -3.68505e-02
       O  8.48463e-01  3.47901e-01 -8.76151e-02
       H -1.11677e+00  5.53898e-01 -1.90475e-01
       H -9.08874e-02 -1.23749e+00  2.01536e-01
       L  3.98199e+00  3.99313e+00  7.54994e-02
       L -1.26692e-01 -7.94562e+00 -7.12024e-01
6
# CELL(abcABC):  459.05226   459.05226   459.05226    90.00000    90.00000    90.00000  Step:          58  Bead:       0 x_centroid{angstrom}  cell{atomic_unit}
       C -2.74223e-01 -1.92446e-01 -3.29453e-02
       O  8.38619e-01  3.50602e-01 -8.75188e-02
       H -1.11631e+00  6.37867e-01 -2.16931e-01
       H -9.41165e-02 -1.23912e+00  1.79912e-01
       L  3.48693e+00  3.55216e+00 -1.89095e-01
       L -5.54294e-01 -7.70421e+00 -4.15865e-01
6
# CELL(abcABC):  459.05226   459.05226   459.05226    90.00000    90.00000    90.00000  Step:          59  Bead:       0 x_centroid{angstrom}  cell{atomic_unit}
       C -2.59968e-01 -2.02069e-01 -2.91564e-02
       O  8.28324e-01  3.53316e-01 -8.75347e-02
       H -1.11368e+00  7.13181e-01 -2.41919e-01
       H -1.02688e-01 -1.24272e+00  1.59985e-01
       L  2.96916e+00  3.04725e+00 -4.87679e-01
       L -9.88621e-01 -7.40786e+00 -8.48627e-02
6
# CELL(abcABC):  459.05226   459.05226   459.05226    90.00000    90.00000    90.00000  Step:          60  Bead:       0 x_centroid{angstrom}  cell{atomic_unit}
       C -2.45207e-01 -2.10621e-01 -2.55177e-02
       O  8.17796e-01  3.55940e-01 -8.75775e-02
       H -1.10822e+00  7.77520e-01 -2.63534e-01
       H -1.16434e-01 -1.24673e+00  1.38877e-01
       L  2.46976e+00  2.50490e+00 -7.55389e-01
       L -1.40023e+00 -7.01988e+00  2.63498e-01
6
# CELL(abcABC):  459.05226   459.05226   459.05226    90.00000    90.00000    90.00000  Step:          61  Bead:       0 x_centroid{angstrom}  cell{atomic_unit}
       C -2.30254e-01 -2.17591e-01 -2.23590e-02
       O  8.07358e-01  3.58298e-01 -8.73413e-02
       H -1.10237e+00  8.30718e-01 -2.83086e-01
       H -1.34278e-01 -1.25424e+00  1.17020e-01
       L  1.96411e+00  1.91430e+00 -1.03820e+00
       L -1.81665e+00 -6.55586e+00  5.82469e-01
6
# CELL(abcABC):  459.05226   459.05226   459.05226    90.00000    90.00000    90.00000  Step:          62  Bead:       0 x_centroid{angstrom}  cell{atomic_unit}
       C -2.15286e-01 -2.22903e-01 -1.93730e-02
       O  7.97085e-01  3.60410e-01 -8.71199e-02
       H -1.09435e+00  8.72405e-01 -3.01343e-01
       H -1.57092e-01 -1.26610e+00  9.61958e-02
       L  1.44292e+00  1.26759e+00 -1.33390e+00
       L -2.18922e+00 -5.98180e+00  8.51400e-01
6
# CELL(abcABC):  459.05226   459.05226   459.05226    90.00000    90.00000    90.00000  Step:          63  Bead:       0 x_centroid{angstrom}  cell{atomic_unit}
       C -2.00626e-01 -2.26924e-01 -1.70026e-02
       O  7.87272e-01  3.62413e-01 -8.67928e-02
       H -1.08476e+00  9.02917e-01 -3.15515e-01
       H -1.85132e-01 -1.28049e+00  7.69879e-02
       L  8.88589e-01  5.93086e-01 -1.66412e+00
       L -2.52661e+00 -5.32583e+00  1.07576e+00
6
# CELL(abcABC):  459.05226   459.05226   459.05226    90.00000    90.00000    90.00000  Step:          64  Bead:       0 x_centroid{angstrom}  cell{atomic_unit}
       C -1.86887e-01 -2.29626e-01 -1.48036e-02
       O  7.78269e-01  3.64273e-01 -8.65937e-02
       H -1.07458e+00  9.22497e-01 -3.25736e-01
       H -2.15620e-01 -1.29737e+00  5.79158e-02
       L  2.62383e-01 -1.29960e-01 -2.02047e+00
       L -2.82304e+00 -4.64545e+00  1.30117e+00
6
# CELL(abcABC):  459.05226   459.05226   459.05226    90.00000    90.00000    90.00000  Step:          65  Bead:       0 x_centroid{angstrom}  cell{atomic_unit}
       C -1.74506e-01 -2.31423e-01 -1.34439e-02
       O  7.70380e-01  3.66405e-01 -8.60366e-02
       H -1.06328e+00  9.29196e-01 -3.33712e-01
       H -2.48757e-01 -1.31645e+00  4.09634e-02
       L -3.67905e-01 -8.74433e-01 -2.42653e+00
       L -3.06638e+00 -3.97009e+00  1.49219e+00
6
# CELL(abcABC):  459.05226   459.05226   459.05226    90.00000    90.00000    90.00000  Step:          66  Bead:       0 x_centroid{angstrom}  cell{atomic_unit}
       C -1.63603e-01 -2.32518e-01 -1.25939e-02