6
# CELL(abcABC):  459.05226   459.05226   459.05226    90.00000    90.00000    90.00000  Step:           0  Bead:       0 x_centroid{angstrom}  cell{atomic_unit}
       C -3.39887e-01 -1.13437e-01  8.06659e-02
       O  8.43483e-01  2.62672e-01 -1.81512e-01
       H -7.35799e-02  8.16467e-01 -6.61432e-01
       H -4.30016e-01 -9.65701e-01  7.62278e-01
       L  0.00000e+00  0.00000e+00  0.00000e+00
       L  0.00000e+00  0.00000e+00  0.00000e+00
6
# CELL(abcABC):  459.05226   459.05226   459.05226    90.00000    90.00000    90.00000  Step:           1  Bead:       0 x_centroid{angstrom}  cell{atomic_unit}
       C -3.42969e-01 -1.12570e-01  8.32669e-02
       O  8.44737e-01  2.62722e-01 -1.83096e-01
       H -5.85071e-02  8.06250e-01 -6.65336e-01
       H -4.28170e-01 -9.66536e-01  7.60388e-01
       L  7.79475e-03 -1.63870e-01  5.65364e-02
       L -1.68888e-01  1.66083e-02 -1.63159e-01
6
# CELL(abcABC):  459.05226   459.05226   459.05226    90.00000    90.00000    90.00000  Step:           2  Bead:       0 x_centroid{angstrom}  cell{atomic_unit}
       C -3.45960e-01 -1.11646e-01  8.57548e-02
       O  8.45961e-01  2.62780e-01 -1.84644e-01
       H -4.29079e-02  7.95758e-01 -6.69885e-01
       H -4.27485e-01 -9.67864e-01  7.59901e-01
       L  2.03349e-02 -3.34434e-01  1.40878e-01
       L -3.16960e-01 -1.30403e-02 -3.31688e-01
6
# CELL(abcABC):  459.05226   459.05226   459.05226    90.00000    90.00000    90.00000  Step:           3  Bead:       0 x_centroid{angstrom}  cell{atomic_unit}
       C -3.49087e-01 -1.10866e-01  8.82090e-02
       O  8.47140e-01  2.62863e-01 -1.86213e-01
       H -2.42977e-02  7.86525e-01 -6.74638e-01
       H -4.27490e-01 -9.69105e-01  7.60303e-01
       L  4.10541e-02 -5.49587e-01  2.99202e-01
       L -4.52089e-01 -5.48482e-02 -4.58081e-01
6
# CELL(abcABC):  459.05226   459.05226   459.05226    90.00000    90.00000    90.00000  Step:           4  Bead:       0 x_centroid{angstrom}  cell{atomic_unit}
       C -3.52191e-01 -1.10414e-01  9.08766e-02
       O  8.48155e-01  2.63005e-01 -1.87771e-01
       H -3.30748e-03  7.79528e-01 -6.81425e-01
       H -4.27566e-01 -9.69616e-01  7.60023e-01
       L  9.03801e-02 -7.26945e-01  4.29595e-01
       L -5.68762e-01 -1.36621e-01 -5.85997e-01
6
# CELL(abcABC):  459.05226   459.05226   459.05226    90.00000    90.00000    90.00000  Step:           5  Bead:       0 x_centroid{angstrom}  cell{atomic_unit}
       C -3.55364e-01 -1.10399e-01  9.39394e-02
       O  8.48845e-01  2.63250e-01 -1.89612e-01
       H  2.11372e-02  7.76346e-01 -6.87972e-01
       H -4.25147e-01 -9.70326e-01  7.59299e-01
       L  2.01635e-01 -9.32853e-01  5.69068e-01
       L -7.10595e-01 -2.54131e-01 -7.28311e-01
6
# CELL(abcABC):  459.05226   459.05226   459.05226    90.00000    90.00000    90.00000  Step:           6  Bead:       0 x_centroid{angstrom}  cell{atomic_unit}
       C -3.58617e-01 -1.10780e-01  9.71869e-02
       O  8.49216e-01  2.63628e-01 -1.91429e-01
       H  4.96339e-02  7.75311e-01 -6.95952e-01
       H -4.20711e-01 -9.70570e-01  7.57416e-01
       L  3.12387e-01 -1.14596e+00  7.28535e-01
       L -9.13328e-01 -3.63563e-01 -8.60967e-01
6
# CELL(abcABC):  459.05226   459.05226   459.05226    90.00000    90.00000    90.00000  Step:           7  Bead:       0 x_centroid{angstrom}  cell{atomic_unit}
       C -3.62300e-01 -1.11548e-01  1.00787e-01
       O  8.49457e-01  2.64224e-01 -1.93287e-01
       H  8.37340e-02  7.75780e-01 -7.06190e-01
       H -4.14694e-01 -9.71170e-01  7.54190e-01
       L  4.07332e-01 -1.39827e+00  9.54049e-01
       L -1.09647e+00 -4.54999e-01 -1.00031e+00
6
# CELL(abcABC):  459.05226   459.05226   459.05226    90.00000    90.00000    90.00000  Step:           8  Bead:       0 x_centroid{angstrom}  cell{atomic_unit}
       C -3.66220e-01 -1.12651e-01  1.04795e-01
       O  8.49383e-01  2.64952e-01 -1.95428e-01
       H  1.23958e-01  7.79334e-01 -7.19086e-01
       H -4.07012e-01 -9.72962e-01  7.53227e-01
       L  5.34416e-01 -1.65215e+00  1.21617e+00
       L -1.29403e+00 -5.03919e-01 -1.08947e+00
6
# CELL(abcABC):  459.05226   459.05226   459.05226    90.00000    90.00000    90.00000  Step:           9  Bead:       0 x_centroid{angstrom}  cell{atomic_unit}
       C -3.70586e-01 -1.13618e-01  1.09052e-01
       O  8.49090e-01  2.65458e-01 -1.97636e-01
       H  1.71035e-01  7.85425e-01 -7.35147e-01
       H -3.97384e-01 -9.75431e-01  7.53516e-01
       L  6.57000e-01 -1.84113e+00  1.44410e+00
       L -1.44457e+00 -5.57132e-01 -1.15619e+00
6
# CELL(abcABC):  459.05226   459.05226   459.05226    90.00000    90.00000    90.00000  Step:          10  Bead:       0 x_centroid{angstrom}  cell{atomic_unit}
       C -3.74948e-01 -1.14883e-01  1.13519e-01
       O  8.48195e-01  2.66047e-01 -1.99906e-01
       H  2.26299e-01  7.95425e-01 -7.54190e-01
       H -3.86489e-01 -9.79563e-01  7.55274e-01
       L  8.04566e-01 -1.99722e+00  1.63570e+00
       L -1.54124e+00 -6.62127e-01 -1.18518e+00
6
# CELL(abcABC):  459.05226   459.05226   459.05226    90.00000    90.00000    90.00000  Step:          11  Bead:       0 x_centroid{angstrom}  cell{atomic_unit}
       C -3.79585e-01 -1.16521e-01  1.18304e-01
       O  8.46913e-01  2.66838e-01 -2.02352e-01
       H  2.89862e-01  8.08915e-01 -7.76450e-01
       H -3.74513e-01 -9.85964e-01  7.59270e-01
       L  9.97417e-01 -2.10764e+00  1.78940e+00
       L -1.62206e+00 -7.72116e-01 -1.19818e+00
6
# CELL(abcABC):  459.05226   459.05226   459.05226    90.00000    90.00000    90.00000  Step:          12  Bead:       0 x_centroid{angstrom}  cell{atomic_unit}
       C -3.84535e-01 -1.18581e-01  1.23523e-01
       O  8.45312e-01  2.67754e-01 -2.05002e-01
       H  3.61247e-01  8.27209e-01 -8.01134e-01
       H -3.61533e-01 -9.94110e-01  7.63753e-01
       L  1.18899e+00 -2.26421e+00  1.91342e+00
       L -1.76594e+00 -8.75484e-01 -1.18849e+00
6
# CELL(abcABC):  459.05226   459.05226   459.05226    90.00000    90.00000    90.00000  Step:          13  Bead:       0 x_centroid{angstrom}  cell{atomic_unit}
       C -3.89439e-01 -1.20989e-01  1.28952e-01
       O  8.43285e-01  2.68700e-01 -2.07826e-01
       H  4.36946e-01  8.50474e-01 -8.27553e-01
       H -3.46593e-01 -1.00357e+00  7.70232e-01
       L  1.34641e+00 -2.42172e+00  2.06676e+00
       L -1.94525e+00 -9.75560e-01 -1.20544e+00
6
# CELL(abcABC):  459.05226   459.05226   459.05226    90.00000    90.00000    90.00000  Step:          14  Bead:       0 x_centroid{angstrom}  cell{atomic_unit}
       C -3.93819e-01 -1.23926e-01  1.34542e-01
       O  8.40581e-01  2.69739e-01 -2.10677e-01
       H  5.16493e-01  8.77566e-01 -8.56722e-01
       H -3.31019e-01 -1.01199e+00  7.77980e-01
       L  1.52622e+00 -2.57453e+00  2.19911e+00
       L -2.16770e+00 -1.12289e+00 -1.20383e+00
6
# CELL(abcABC):  459.05226   459.05226   459.05226    90.00000    90.00000    90.00000  Step:          15  Bead:       0 x_centroid{angstrom}  cell{atomic_unit}
       C -3.98068e-01 -1.26951e-01  1.40296e-01
       O  8.37527e-01  2.70672e-01 -2.13585e-01
       H  5.98240e-01  9.07279e-01 -8.87242e-01
       H -3.13613e-01 -1.02029e+00  7.86022e-01
       L  1.67058e+00 -2.73895e+00  2.31764e+00
       L -2.39507e+00 -1.26463e+00 -1.19841e+00
6
# CELL(abcABC):  459.05226   459.05226   459.05226    90.00000    90.00000    90.00000  Step:          16  Bead:       0 x_centroid{angstrom}  cell{atomic_unit}
       C -4.02063e-01 -1.30106e-01  1.46097e-01
       O  8.34090e-01  2.71563e-01 -2.16648e-01
       H  6.80882e-01  9.37141e-01 -9.16645e-01
       H -2.94074e-01 -1.02658e+00  7.94847e-01
       L  1.82245e+00 -2.89075e+00  2.42465e+00
       L -2.58359e+00 -1.36065e+00 -1.18386e+00
6
# CELL(abcABC):  459.05226   459.05226   459.05226    90.00000    90.00000    90.00000  Step:          17  Bead:       0 x_centroid{angstrom}  cell{atomic_unit}
       C -4.06294e-01 -1.33282e-01  1.51669e-01
       O  8.30627e-01  2.72478e-01 -2.19848e-01
       H  7.64408e-01  9.65076e-01 -9.42050e-01
       H -2.72143e-01 -1.03108e+00  8.04605e-01
       L  1.92012e+00 -3.03881e+00  2.51960e+00
       L -2.77601e+00 -1.39878e+00 -1.18329e+00
6
# CELL(abcABC):  459.05226   459.05226   459.05226    90.00000    90.00000    90.00000  Step:          18  Bead:       0 x_centroid{angstrom}  cell{atomic_unit}
       C -4.10185e-01 -1.36232e-01  1.56883e-01
       O  8.26948e-01  2.73297e-01 -2.23023e-01
       H  8.47787e-01  9.90394e-01 -9.62572e-01
       H -2.50722e-01 -1.03415e+00  8.13371e-01
       L  2.02759e+00 -3.19316e+00  2.55291e+00
       L -2.96704e+00 -1.42668e+00 -1.17615e+00
6
# CELL(abcABC):  459.05226   459.05226   459.05226    90.00000    90.00000    90.00000  Step:          19  Bead:       0 x_centroid{angstrom}  cell{atomic_unit}
       C -4.13647e-01 -1.38843e-01  1.61709e-01
       O  8.22896e-01  2.74054e-01 -2.26265e-01
       H  9.29424e-01  1.01045e+00 -9.76322e-01
       H -2.26737e-01 -1.03503e+00  8.21075e-01
       L  2.12683e+00 -3.33012e+00  2.60503e+00
       L -3.14968e+00 -1.43470e+00 -1.22093e+00
6
# CELL(abcABC):  459.05226   459.05226   459.05226    90.00000    90.00000    90.00000  Step:          20  Bead:       0 x_centroid{angstrom}  cell{atomic_unit}
       C -4.16849e-01 -1.41054e-01  1.66360e-01
       O  8.18900e-01  2.74751e-01 -2.29728e-01
       H  1.00676e+00  1.02448e+00 -9.82190e-01
       H -2.02418e-01 -1.03372e+00  8.26495e-01
       L  2.17035e+00 -3.45102e+00  2.59773e+00
       L -3.31757e+00 -1.42039e+00 -1.24350e+00
6
# CELL(abcABC):  459.05226   459.05226   459.05226    90.00000    90.00000    90.00000  Step:          21  Bead:       0 x_centroid{angstrom}  cell{atomic_unit}
       C -4.19722e-01 -1.43208e-01  1.70504e-01
       O  8.15011e-01  2.75764e-01 -2.33169e-01
       H  1.07883e+00  1.02997e+00 -9.80212e-01
       H -1.78469e-01 -1.02961e+00  8.29785e-01
       L  2.16742e+00 -3.51246e+00  2.57505e+00
       L -3.41674e+00 -1.35995e+00 -1.25503e+00
6
# CELL(abcABC):  459.05226   459.05226   459.05226    90.00000    90.00000    90.00000  Step:          22  Bead:       0 x_centroid{angstrom}  cell{atomic_unit}
       C -4.22101e-01 -1.45078e-01  1.74231e-01
       O  8.11004e-01  2.76836e-01 -2.36718e-01
       H  1.14542e+00  1.02872e+00 -9.69976e-01
       H -1.53088e-01 -1.02313e+00  8.31487e-01
       L  2.16942e+00 -3.52578e+00  2.50480e+00
       L -3.46779e+00 -1.30256e+00 -1.20907e+00
6
# CELL(abcABC):  459.05226   459.05226   459.05226    90.00000    90.00000    90.00000  Step:          23  Bead:       0 x_centroid{angstrom}  cell{atomic_unit}
       C -4.24079e-01 -1.46565e-01  1.77641e-01
       O  8.07229e-01  2.78008e-01 -2.40567e-01
       H  1.20450e+00  1.01945e+00 -9.50333e-01
       H -1.28627e-01 -1.01479e+00  8.32318e-01
       L  2.16597e+00 -3.50473e+00  2.44389e+00
       L -3.55150e+00 -1.23484e+00 -1.19310e+00
6
# CELL(abcABC):  459.05226   459.05226   459.05226    90.00000    90.00000    90.00000  Step:          24  Bead:       0 x_centroid{angstrom}  cell{atomic_unit}
       C -4.25587e-01 -1.47696e-01  1.80592e-01
       O  8.03693e-01  2.79262e-01 -2.44430e-01
       H  1.25388e+00  1.00195e+00 -9.23102e-01
       H -1.03869e-01 -1.00382e+00  8.31331e-01
       L  2.15027e+00 -3.44221e+00  2.35402e+00
       L -3.62296e+00 -1.13491e+00 -1.23842e+00
6
# CELL(abcABC):  459.05226   459.05226   459.05226    90.00000    90.00000    90.00000  Step:          25  Bead:       0 x_centroid{angstrom}  cell{atomic_unit}
       C -4.26459e-01 -1.48646e-01  1.83107e-01
       O  8.00352e-01  2.80628e-01 -2.48276e-01
       H  1.29271e+00  9.79123e-01 -8.89735e-01
       H -7.91853e-02 -9.91435e-01  8.29126e-01
       L  2.10439e+00 -3.37662e+00  2.18611e+00
       L -3.70411e+00 -1.04157e+00 -1.24463e+00
6
# CELL(abcABC):  459.05226   459.05226   459.05226    90.00000    90.00000    90.00000  Step:          26  Bead:       0 x_centroid{angstrom}  cell{atomic_unit}
       C -4.26863e-01 -1.49081e-01  1.85367e-01
       O  7.97350e-01  2.81874e-01 -2.52213e-01
       H  1.32193e+00  9.51059e-01 -8.50829e-01
       H -5.58940e-02 -9.78080e-01  8.25914e-01
       L  2.05883e+00 -3.30784e+00  2.00057e+00
       L -3.75430e+00 -8.96006e-01 -1.27507e+00
6
# CELL(abcABC):  459.05226   459.05226   459.05226    90.00000    90.00000    90.00000  Step:          27  Bead:       0 x_centroid{angstrom}  cell{atomic_unit}
       C -4.26524e-01 -1.49099e-01  1.87320e-01
       O  7.94579e-01  2.83126e-01 -2.56061e-01
       H  1.34037e+00  9.18105e-01 -8.09759e-01
       H -3.43685e-02 -9.64912e-01  8.22696e-01
       L  2.01263e+00 -3.25434e+00  1.83502e+00
       L -3.75652e+00 -7.25587e-01 -1.21107e+00
6
# CELL(abcABC):  459.05226   459.05226   459.05226    90.00000    90.00000    90.00000  Step:          28  Bead:       0 x_centroid{angstrom}  cell{atomic_unit}
       C -4.25814e-01 -1.49016e-01  1.88973e-01
       O  7.92136e-01  2.84370e-01 -2.59858e-01
       H  1.34988e+00  8.83862e-01 -7.65825e-01
       H -1.35509e-02 -9.51546e-01  8.19425e-01
       L  1.92558e+00 -3.17387e+00  1.63952e+00
       L -3.69177e+00 -5.18660e-01 -1.16151e+00
6
# CELL(abcABC):  459.05226   459.05226   459.05226    90.00000    90.00000    90.00000  Step:          29  Bead:       0 x_centroid{angstrom}  cell{atomic_unit}
       C -4.24423e-01 -1.48674e-01  1.90426e-01
       O  7.89707e-01  2.85503e-01 -2.63603e-01
       H  1.35376e+00  8.48815e-01 -7.21760e-01
       H  4.56231e-03 -9.38766e-01  8.17570e-01
       L  1.83410e+00 -3.04956e+00  1.38808e+00
       L -3.61674e+00 -2.88737e-01 -1.05962e+00
6
# CELL(abcABC):  459.05226   459.05226   459.05226    90.00000    90.00000    90.00000  Step:          30  Bead:       0 x_centroid{angstrom}  cell{atomic_unit}
       C -4.22489e-01 -1.48176e-01  1.91648e-01
       O  7.87083e-01  2.86338e-01 -2.66958e-01
       H  1.35725e+00  8.18862e-01 -6.81941e-01
       H  1.96920e-02 -9.28220e-01  8.16510e-01
       L  1.71381e+00 -2.90575e+00  1.15663e+00
       L -3.52426e+00 -2.38797e-02 -9.64726e-01
6
# CELL(abcABC):  459.05226   459.05226   459.05226    90.00000    90.00000    90.00000  Step:          31  Bead:       0 x_centroid{angstrom}  cell{atomic_unit}
       C -4.19984e-01 -1.47316e-01  1.92560e-01
       O  7.84037e-01  2.86411e-01 -2.69599e-01
       H  1.36365e+00  7.97759e-01 -6.49358e-01
       H  3.18119e-02 -9.18727e-01  8.15090e-01
       L  1.58647e+00 -2.75651e+00  9.20748e-01
       L -3.41455e+00  2.11451e-01 -9.09118e-01
6
# CELL(abcABC):  459.05226   459.05226   459.05226    90.00000    90.00000    90.00000  Step:          32  Bead:       0 x_centroid{angstrom}  cell{atomic_unit}
       C -4.16878e-01 -1.46202e-01  1.93676e-01
       O  7.80299e-01  2.85677e-01 -2.71866e-01
       H  1.37702e+00  7.88809e-01 -6.26820e-01
       H  4.07630e-02 -9.11624e-01  8.15336e-01
       L  1.43548e+00 -2.54548e+00  7.01536e-01
       L -3.28162e+00  4.06563e-01 -8.86294e-01
6
# CELL(abcABC):  459.05226   459.05226   459.05226    90.00000    90.00000    90.00000  Step:          33  Bead:       0 x_centroid{angstrom}  cell{atomic_unit}
       C -4.13419e-01 -1.44420e-01  1.94740e-01
       O  7.75922e-01  2.83781e-01 -2.73543e-01
       H  1.39858e+00  7.91857e-01 -6.12985e-01
       H  4.74383e-02 -9.06084e-01  8.15558e-01
       L  1.29716e+00 -2.24760e+00  4.54479e-01
       L -3.08786e+00  6.03045e-01 -8.39382e-01
6
# CELL(abcABC):  459.05226   459.05226   459.05226    90.00000    90.00000    90.00000  Step:          34  Bead:       0 x_centroid{angstrom}  cell{atomic_unit}
       C -4.09259e-01 -1.42471e-01  1.95517e-01
       O  7.70923e-01  2.81408e-01 -2.74700e-01
       H  1.42510e+00  8.03734e-01 -6.05879e-01
       H  5.06369e-02 -9.03781e-01  8.17640e-01
       L  1.15007e+00 -1.93273e+00  2.67891e-01
       L -2.84488e+00  7.85641e-01 -8.13993e-01
6
# CELL(abcABC):  459.05226   459.05226   459.05226    90.00000    90.00000    90.00000  Step:          35  Bead:       0 x_centroid{angstrom}  cell{atomic_unit}
       C -4.04954e-01 -1.40390e-01  1.96520e-01
       O  7.65793e-01  2.78611e-01 -2.75845e-01
       H  1.45430e+00  8.22649e-01 -6.02240e-01
       H  5.15202e-02 -9.03355e-01  8.20346e-01
       L  9.95543e-01 -1.62227e+00  4.27605e-02
       L -2.58721e+00  9.58589e-01 -7.99074e-01
6
# CELL(abcABC):  459.05226   459.05226   459.05226    90.00000    90.00000    90.00000  Step:          36  Bead:       0 x_centroid{angstrom}  cell{atomic_unit}
       C -4.00256e-01 -1.38108e-01  1.97188e-01
       O  7.60765e-01  2.75764e-01 -2.76760e-01
       H  1.48005e+00  8.42895e-01 -6.00037e-01
       H  4.95536e-02 -9.05902e-01  8.24881e-01
       L  8.29630e-01 -1.26870e+00 -2.52191e-01
       L -2.33175e+00  1.14957e+00 -8.23353e-01
6
# CELL(abcABC):  459.05226   459.05226   459.05226    90.00000    90.00000    90.00000  Step:          37  Bead:       0 x_centroid{angstrom}  cell{atomic_unit}
       C -3.95824e-01 -1.35565e-01  1.97626e-01
       O  7.56326e-01  2.72897e-01 -2.77634e-01
       H  1.50245e+00  8.63733e-01 -5.96104e-01
       H  4.47522e-02 -9.11856e-01  8.29736e-01
       L  6.80102e-01 -8.97699e-01 -5.24431e-01
       L -2.07641e+00  1.36422e+00 -8.01830e-01
6
# CELL(abcABC):  459.05226   459.05226   459.05226    90.00000    90.00000    90.00000  Step:          38  Bead:       0 x_centroid{angstrom}  cell{atomic_unit}
       C -3.91260e-01 -1.33061e-01  1.97921e-01
       O  7.52454e-01  2.70337e-01 -2.78634e-01
       H  1.51734e+00  8.82135e-01 -5.89939e-01
       H  3.68572e-02 -9.19766e-01  8.36097e-01
       L  5.34465e-01 -4.54189e-01 -8.39979e-01
       L -1.79732e+00  1.47529e+00 -7.98660e-01
6
# CELL(abcABC):  459.05226   459.05226   459.05226    90.00000    90.00000    90.00000  Step:          39  Bead:       0 x_centroid{angstrom}  cell{atomic_unit}
       C -3.86867e-01 -1.30561e-01  1.98504e-01
       O  7.49455e-01  2.68088e-01 -2.80052e-01
       H  1.52301e+00  8.97371e-01 -5.81364e-01
       H  2.63626e-02 -9.29455e-01  8.43197e-01
       L  3.55678e-01  4.79349e-02 -1.12042e+00
       L -1.47701e+00  1.63347e+00 -7.34560e-01
6
# CELL(abcABC):  459.05226   459.05226   459.05226    90.00000    90.00000    90.00000  Step:          40  Bead:       0 x_centroid{angstrom}  cell{atomic_unit}
       C -3.82480e-01 -1.28085e-01  1.99244e-01
       O  7.47359e-01  2.66138e-01 -2.81721e-01
       H  1.51754e+00  9.08693e-01 -5.71808e-01
       H  1.27383e-02 -9.39633e-01  8.51427e-01
       L  1.93157e-01  5.25383e-01 -1.37878e+00
       L -1.14867e+00  1.71915e+00 -6.65280e-01
6
# CELL(abcABC):  459.05226   459.05226   459.05226    90.00000    90.00000    90.00000  Step:          41  Bead:       0 x_centroid{angstrom}  cell{atomic_unit}
       C -3.78000e-01 -1.25522e-01  1.99659e-01
       O  7.45972e-01  2.64533e-01 -2.83342e-01
       H  1.50219e+00  9.14703e-01 -5.60270e-01
       H -3.37889e-03 -9.50950e-01  8.60783e-01
       L  1.35393e-02  9.42185e-01 -1.62760e+00
       L -7.85959e-01  1.77164e+00 -6.03824e-01
6
# CELL(abcABC):  459.05226   459.05226   459.05226    90.00000    90.00000    90.00000  Step:          42  Bead:       0 x_centroid{angstrom}  cell{atomic_unit}
       C -3.73621e-01 -1.23117e-01  1.99990e-01
       O  7.45325e-01  2.63302e-01 -2.85104e-01
       H  1.47778e+00  9.17539e-01 -5.45055e-01
       H -2.09774e-02 -9.63164e-01  8.69640e-01
       L -2.07157e-01  1.35914e+00 -1.81880e+00
       L -3.85573e-01  1.81419e+00 -5.22021e-01
6
# CELL(abcABC):  459.05226   459.05226   459.05226    90.00000    90.00000    90.00000  Step:          43  Bead:       0 x_centroid{angstrom}  cell{atomic_unit}
       C -3.69324e-01 -1.20577e-01  2.00514e-01
       O  7.45435e-01  2.62189e-01 -2.87019e-01
       H  1.44375e+00  9.15844e-01 -5.28386e-01
       H -3.99945e-02 -9.74297e-01  8.77212e-01
       L -3.97373e-01  1.74902e+00 -2.03762e+00
       L -1.07664e-02  1.84146e+00 -4.37250e-01
6
# CELL(abcABC):  459.05226   459.05226   459.05226    90.00000    90.00000    90.00000  Step:          44  Bead:       0 x_centroid{angstrom}  cell{atomic_unit}
       C -3.65501e-01 -1.18089e-01  2.01423e-01
       O  7.46324e-01  2.61230e-01 -2.89126e-01
       H  1.40348e+00  9.11689e-01 -5.11385e-01
       H -5.95006e-02 -9.84776e-01  8.82910e-01
       L -6.04535e-01  2.15673e+00 -2.25140e+00
       L  4.03297e-01  1.81021e+00 -4.12413e-01
6
# CELL(abcABC):  459.05226   459.05226   459.05226    90.00000    90.00000    90.00000  Step:          45  Bead:       0 x_centroid{angstrom}  cell{atomic_unit}
       C -3.61838e-01 -1.15559e-01  2.02512e-01
       O  7.47611e-01  2.60086e-01 -2.91225e-01
       H  1.35958e+00  9.09681e-01 -4.94706e-01
       H -7.98133e-02 -9.94910e-01  8.86672e-01
       L -7.41160e-01  2.48956e+00 -2.44613e+00
       L  7.97030e-01  1.76436e+00 -3.83829e-01
6
# CELL(abcABC):  459.05226   459.05226   459.05226    90.00000    90.00000    90.00000  Step:          46  Bead:       0 x_centroid{angstrom}  cell{atomic_unit}
       C -3.58562e-01 -1.13003e-01  2.03947e-01
       O  7.49284e-01  2.58359e-01 -2.93271e-01
       H  1.31596e+00  9.14999e-01 -4.81145e-01
       H -1.01910e-01 -1.00341e+00  8.88590e-01
       L -9.17754e-01  2.84040e+00 -2.67549e+00
       L  1.16705e+00  1.69054e+00 -3.60453e-01
6
# CELL(abcABC):  459.05226   459.05226   459.05226    90.00000    90.00000    90.00000  Step:          47  Bead:       0 x_centroid{angstrom}  cell{atomic_unit}
       C -3.55933e-01 -1.10227e-01  2.05647e-01
       O  7.51140e-01  2.55939e-01 -2.95118e-01
       H  1.27633e+00  9.27983e-01 -4.70205e-01
       H -1.23204e-01 -1.01124e+00  8.86843e-01
       L -1.07000e+00  3.22318e+00 -2.90184e+00
       L  1.58719e+00  1.62011e+00 -3.52225e-01
6
# CELL(abcABC):  459.05226   459.05226   459.05226    90.00000    90.00000    90.00000  Step:          48  Bead:       0 x_centroid{angstrom}  cell{atomic_unit}
       C -3.53687e-01 -1.07153e-01  2.07790e-01
       O  7.52921e-01  2.52439e-01 -2.96914e-01
       H  1.24164e+00  9.53116e-01 -4.62118e-01
       H -1.43676e-01 -1.01759e+00  8.81807e-01
       L -1.22845e+00  3.56501e+00 -3.06094e+00
       L  1.98091e+00  1.53520e+00 -3.43224e-01
6
# CELL(abcABC):  459.05226   459.05226   459.05226    90.00000    90.00000    90.00000  Step:          49  Bead:       0 x_centroid{angstrom}  cell{atomic_unit}
       C -3.51841e-01 -1.03779e-01  2.10097e-01
       O  7.54724e-01  2.47802e-01 -2.98389e-01
       H  1.21026e+00  9.92578e-01 -4.57320e-01
       H -1.62984e-01 -1.02369e+00  8.72954e-01
       L -1.42892e+00  3.81788e+00 -3.14382e+00
       L  2.31488e+00  1.36888e+00 -2.88060e-01
6
# CELL(abcABC):  459.05226   459.05226   459.05226    90.00000    90.00000    90.00000  Step:          50  Bead:       0 x_centroid{angstrom}  cell{atomic_unit}
       C -3.50440e-01 -1.00344e-01  2.12798e-01
       O  7.56764e-01  2.42484e-01 -2.99857e-01
       H  1.18049e+00  1.04080e+00 -4.55797e-01
       H -1.82386e-01 -1.02848e+00  8.62522e-01
       L -1.61390e+00  4.03771e+00 -3.20299e+00
       L  2.68101e+00  1.22770e+00 -1.73584e-01
6
# CELL(abcABC):  459.05226   459.05226   459.05226    90.00000    90.00000    90.00000  Step:          51  Bead:       0 x_centroid{angstrom}  cell{atomic_unit}
       C -3.49650e-01 -9.65557e-02  2.15722e-01
       O  7.59332e-01  2.36532e-01 -3.01296e-01
       H  1.14759e+00  1.09495e+00 -4.56642e-01
       H -1.99758e-01 -1.03333e+00  8.51329e-01
       L -1.75937e+00  4.22733e+00 -3.23331e+00
       L  2.98094e+00  1.10997e+00 -9.54023e-02
6
# CELL(abcABC):  459.05226   459.05226   459.05226    90.00000    90.00000    90.00000  Step:          52  Bead:       0 x_centroid{angstrom}  cell{atomic_unit}
       C -3.49380e-01 -9.27836e-02  2.18955e-01
       O  7.62405e-01  2.30516e-01 -3.02701e-01
       H  1.11054e+00  1.14879e+00 -4.58724e-01
       H -2.14740e-01 -1.03668e+00  8.37201e-01
       L -1.92923e+00  4.41423e+00 -3.28048e+00
       L  3.25791e+00  1.00820e+00 -7.24869e-02
6
# CELL(abcABC):  459.05226   459.05226   459.05226    90.00000    90.00000    90.00000  Step:          53  Bead:       0 x_centroid{angstrom}  cell{atomic_unit}
       C -3.49575e-01 -8.85904e-02  2.22441e-01
       O  7.66091e-01  2.24383e-01 -3.04077e-01
       H  1.06820e+00  1.19934e+00 -4.61610e-01
       H -2.28637e-01 -1.03988e+00  8.20404e-01
       L -2.06673e+00  4.58008e+00 -3.30733e+00
       L  3.45967e+00  9.26185e-01 -6.55890e-02
6
# CELL(abcABC):  459.05226   459.05226   459.05226    90.00000    90.00000    90.00000  Step:          54  Bead:       0 x_centroid{angstrom}  cell{atomic_unit}
       C -3.50222e-01 -8.39728e-02  2.26488e-01
       O  7.70494e-01  2.18295e-01 -3.05637e-01
       H  1.01898e+00  1.24314e+00 -4.65710e-01
       H -2.41621e-01 -1.04209e+00  8.01032e-01
       L -2.20416e+00  4.76106e+00 -3.31209e+00
       L  3.62769e+00  7.95721e-01 -6.27535e-02
6
# CELL(abcABC):  459.05226   459.05226   459.05226    90.00000    90.00000    90.00000  Step:          55  Bead:       0 x_centroid{angstrom}  cell{atomic_unit}
       C -3.51344e-01 -7.96237e-02  2.30936e-01
       O  7.75514e-01  2.13103e-01 -3.07225e-01
       H  9.65181e-01  1.27593e+00 -4.70684e-01
       H -2.54107e-01 -1.04429e+00  7.78194e-01
       L -2.35000e+00  4.89484e+00 -3.24837e+00
       L  3.71961e+00  6.44384e-01 -7.23887e-02
6
# CELL(abcABC):  459.05226   459.05226   459.05226    90.00000    90.00000    90.00000  Step:          56  Bead:       0 x_centroid{angstrom}  cell{atomic_unit}
       C -3.52758e-01 -7.48990e-02  2.35572e-01
       O  7.80869e-01  2.08373e-01 -3.08880e-01
       H  9.07988e-01  1.29625e+00 -4.75076e-01
       H -2.65024e-01 -1.04579e+00  7.53596e-01
       L -2.45972e+00  5.00301e+00 -3.19336e+00
       L  3.78151e+00  4.89527e-01 -9.52174e-02
6
# CELL(abcABC):  459.05226   459.05226   459.05226    90.00000    90.00000    90.00000  Step:          57  Bead:       0 x_centroid{angstrom}  cell{atomic_unit}
       C -3.54411e-01 -6.97782e-02  2.40373e-01
       O  7.86445e-01  2.04016e-01 -3.10442e-01
       H  8.48491e-01  1.30481e+00 -4.80438e-01
       H -2.74301e-01 -1.04617e+00  7.26513e-01
       L -2.56031e+00  5.06997e+00 -3.11800e+00
       L  3.78825e+00  3.55124e-01 -1.28012e-01
6
# CELL(abcABC):  459.05226   459.05226   459.05226    90.00000    90.00000    90.00000  Step:          58  Bead:       0 x_centroid{angstrom}  cell{atomic_unit}
       C -3.56044e-01 -6.45516e-02  2.45156e-01
       O  7.92192e-01  2.00498e-01 -3.11885e-01
       H  7.86304e-01  1.30060e+00 -4.85835e-01
       H -2.83824e-01 -1.04832e+00  6.97775e-01
       L -2.66802e+00  5.08506e+00 -3.03164e+00
       L  3.80166e+00  1.76542e-01 -1.26297e-01
6
# CELL(abcABC):  459.05226   459.05226   459.05226    90.00000    90.00000    90.00000  Step:          59  Bead:       0 x_centroid{angstrom}  cell{atomic_unit}
       C -3.57195e-01 -5.92014e-02  2.49988e-01
       O  7.97472e-01  1.97805e-01 -3.13323e-01
       H  7.24202e-01  1.28396e+00 -4.91466e-01
       H -2.91771e-01 -1.05258e+00  6.68559e-01
       L -2.70057e+00  5.07505e+00 -2.91774e+00
       L  3.73527e+00  3.09201e-03 -7.80767e-02
6
# CELL(abcABC):  459.05226   459.05226   459.05226    90.00000    90.00000    90.00000  Step:          60  Bead:       0 x_centroid{angstrom}  cell{atomic_unit}
       C -3.58362e-01 -5.36587e-02  2.54827e-01
       O  8.02634e-01  1.95865e-01 -3.14740e-01
       H  6.63831e-01  1.25564e+00 -4.95811e-01
       H -2.99372e-01 -1.05940e+00  6.37632e-01
       L -2.72935e+00  5.02697e+00 -2.75388e+00
       L  3.66421e+00 -1.67406e-01 -3.30687e-02
6
# CELL(abcABC):  459.05226   459.05226   459.05226    90.00000    90.00000    90.00000  Step:          61  Bead:       0 x_centroid{angstrom}  cell{atomic_unit}
       C -3.59478e-01 -4.81647e-02  2.59604e-01
       O  8.07660e-01  1.94732e-01 -3.16060e-01
       H  6.06485e-01  1.21720e+00 -5.00215e-01
       H -3.08461e-01 -1.06828e+00  6.05949e-01
       L -2.73732e+00  4.91630e+00 -2.58077e+00
       L  3.58884e+00 -3.55742e-01 -7.72743e-03
6
# CELL(abcABC):  459.05226   459.05226   459.05226    90.00000    90.00000    90.00000  Step:          62  Bead:       0 x_centroid{angstrom}  cell{atomic_unit}
       C -3.60763e-01 -4.26078e-02  2.64609e-01
       O  8.12354e-01  1.94289e-01 -3.17563e-01
       H  5.54923e-01  1.17010e+00 -5.04908e-01
       H -3.16053e-01 -1.08014e+00  5.74747e-01
       L -2.73386e+00  4.77885e+00 -2.43051e+00
       L  3.50936e+00 -6.30009e-01  6.07305e-02
6
# CELL(abcABC):  459.05226   459.05226   459.05226    90.00000    90.00000    90.00000  Step:          63  Bead:       0 x_centroid{angstrom}  cell{atomic_unit}
       C -3.61637e-01 -3.70927e-02  2.69763e-01
       O  8.16293e-01  1.94281e-01 -3.19217e-01
       H  5.10109e-01  1.11749e+00 -5.09272e-01
       H -3.23325e-01 -1.09291e+00  5.43789e-01
       L -2.69336e+00  4.62211e+00 -2.22799e+00
       L  3.41096e+00 -8.54721e-01  1.49317e-01
6
# CELL(abcABC):  459.05226   459.05226   459.05226    90.00000    90.00000    90.00000  Step:          64  Bead:       0 x_centroid{angstrom}  cell{atomic_unit}
       C -3.62129e-01 -3.17152e-02  2.74434e-01
       O  8.19537e-01  1.94727e-01 -3.20522e-01
       H  4.71868e-01  1.06064e+00 -5.14700e-01
       H -3.30708e-01 -1.10699e+00  5.14117e-01
       L -2.58693e+00  4.45747e+00 -2.02840e+00
       L  3.28417e+00 -1.12815e+00  2.39010e-01
6
# CELL(abcABC):  459.05226   459.05226   459.05226    90.00000    90.00000    90.00000  Step:          65  Bead:       0 x_centroid{angstrom}  cell{atomic_unit}
       C -3.62316e-01 -2.65854e-02  2.79171e-01
       O  8.22159e-01  1.95198e-01 -3.21779e-01
       H  4.40179e-01  1.00618e+00 -5.22294e-01
       H -3.38427e-01 -1.12087e+00  4.85034e-01
       L -2.42833e+00  4.26909e+00 -1.79308e+00
       L  3.16167e+00 -1.43047e+00  3.48990e-01
6
# CELL(abcABC):  459.05226   459.05226   459.05226    90.00000    90.00000    90.00000  Step:          66  Bead:       0 x_centroid{angstrom}  cell{atomic_unit}
       C -3.62135e-01 -2.18768e-02  2.83773e-01