6
# CELL(abcABC):  459.05226   459.05226   459.05226    90.00000    90.00000    90.00000  Step:           0  Bead:       0 x_centroid{angstrom}  cell{atomic_unit}
       C -3.39887e-01 -1.13437e-01  8.06659e-02
       O  8.43483e-01  2.62672e-01 -1.81512e-01
       H -7.35799e-02  8.16467e-01 -6.61432e-01
       H -4.30016e-01 -9.65701e-01  7.62278e-01
       L  0.00000e+00  0.00000e+00  0.00000e+00
       L  0.00000e+00  0.00000e+00  0.00000e+00
6
# CELL(abcABC):  459.05226   459.05226   459.05226    90.00000    90.00000    90.00000  Step:           1  Bead:       0 x_centroid{angstrom}  cell{atomic_unit}
       C -3.41018e-01 -1.11790e-01  8.44041e-02
       O  8.44634e-01  2.61217e-01 -1.85367e-01
       H -7.76347e-02  8.13770e-01 -6.54787e-01
       H -4.30875e-01 -9.59804e-01  7.72509e-01
       L -2.20600e-01 -2.81417e-01 -4.79951e-01
       L  4.44068e-01  7.71064e-01  3.49903e-02
6
# CELL(abcABC):  459.05226   459.05226   459.05226    90.00000    90.00000    90.00000  Step:           2  Bead:       0 x_centroid{angstrom}  cell{atomic_unit}
       C -3.42382e-01 -1.10082e-01  8.79371e-02
       O  8.45988e-01  2.59708e-01 -1.89049e-01
       H -8.13714e-02  8.11064e-01 -6.48268e-01
       H -4.32522e-01 -9.53751e-01  7.82545e-01
       L -4.23415e-01 -5.64023e-01 -9.28904e-01
       L  8.99487e-01  1.51563e+00  1.00655e-01
6
# CELL(abcABC):  459.05226   459.05226   459.05226    90.00000    90.00000    90.00000  Step:           3  Bead:       0 x_centroid{angstrom}  cell{atomic_unit}
       C -3.43726e-01 -1.08576e-01  9.15620e-02
       O  8.47272e-01  2.58337e-01 -1.92802e-01
       H -8.49767e-02  8.08651e-01 -6.41898e-01
       H -4.33392e-01 -9.47766e-01  7.92751e-01
       L -6.23211e-01 -8.16377e-01 -1.35135e+00
       L  1.32417e+00  2.22213e+00  1.57961e-01
6
# CELL(abcABC):  459.05226   459.05226   459.05226    90.00000    90.00000    90.00000  Step:           4  Bead:       0 x_centroid{angstrom}  cell{atomic_unit}
       C -3.45137e-01 -1.06959e-01  9.51112e-02
       O  8.48659e-01  2.56860e-01 -1.96476e-01
       H -8.89395e-02  8.07710e-01 -6.35934e-01
       H -4.34740e-01 -9.42877e-01  8.03037e-01
       L -8.35482e-01 -1.05936e+00 -1.80439e+00
       L  1.74203e+00  2.85836e+00  2.16665e-01
6
# CELL(abcABC):  459.05226   459.05226   459.05226    90.00000    90.00000    90.00000  Step:           5  Bead:       0 x_centroid{angstrom}  cell{atomic_unit}
       C -3.46270e-01 -1.05359e-01  9.87122e-02
       O  8.49930e-01  2.55364e-01 -2.00064e-01
       H -9.39203e-02  8.07695e-01 -6.31887e-01
       H -4.36572e-01 -9.38370e-01  8.13253e-01
       L -1.03842e+00 -1.30360e+00 -2.25412e+00
       L  2.18748e+00  3.45850e+00  2.50918e-01
6
# CELL(abcABC):  459.05226   459.05226   459.05226    90.00000    90.00000    90.00000  Step:           6  Bead:       0 x_centroid{angstrom}  cell{atomic_unit}
       C -3.47154e-01 -1.03665e-01  1.02463e-01
       O  8.51056e-01  2.53646e-01 -2.03650e-01
       H -1.00069e-01  8.09464e-01 -6.28892e-01
       H -4.37891e-01 -9.33219e-01  8.22671e-01
       L -1.22631e+00 -1.56117e+00 -2.64837e+00
       L  2.62100e+00  4.03099e+00  2.91098e-01
6
# CELL(abcABC):  459.05226   459.05226   459.05226    90.00000    90.00000    90.00000  Step:           7  Bead:       0 x_centroid{angstrom}  cell{atomic_unit}
       C -3.47639e-01 -1.02123e-01  1.06069e-01
       O  8.52004e-01  2.52012e-01 -2.07070e-01
       H -1.07932e-01  8.10830e-01 -6.25785e-01
       H -4.39403e-01 -9.27177e-01  8.31070e-01
       L -1.44170e+00 -1.82635e+00 -3.00027e+00
       L  3.03375e+00  4.55630e+00  3.22970e-01
6
# CELL(abcABC):  459.05226   459.05226   459.05226    90.00000    90.00000    90.00000  Step:           8  Bead:       0 x_centroid{angstrom}  cell{atomic_unit}
       C -3.47796e-01 -1.00633e-01  1.09637e-01
       O  8.52814e-01  2.50321e-01 -2.10404e-01
       H -1.17222e-01  8.11706e-01 -6.23591e-01
       H -4.41244e-01 -9.19107e-01  8.39472e-01
       L -1.59643e+00 -2.06733e+00 -3.37210e+00
       L  3.44466e+00  5.08764e+00  3.31756e-01
6
# CELL(abcABC):  459.05226   459.05226   459.05226    90.00000    90.00000    90.00000  Step:           9  Bead:       0 x_centroid{angstrom}  cell{atomic_unit}
       C -3.47943e-01 -9.90735e-02  1.12862e-01
       O  8.53668e-01  2.48518e-01 -2.13520e-01
       H -1.27548e-01  8.12917e-01 -6.21048e-01
       H -4.42893e-01 -9.10424e-01  8.48196e-01
       L -1.73859e+00 -2.27588e+00 -3.70459e+00
       L  3.88036e+00  5.55877e+00  2.48717e-01
6
# CELL(abcABC):  459.05226   459.05226   459.05226    90.00000    90.00000    90.00000  Step:          10  Bead:       0 x_centroid{angstrom}  cell{atomic_unit}
       C -3.47743e-01 -9.72377e-02  1.16136e-01
       O  8.54506e-01  2.46539e-01 -2.16540e-01
       H -1.40841e-01  8.14122e-01 -6.18842e-01
       H -4.45458e-01 -9.02220e-01  8.55102e-01
       L -1.79782e+00 -2.43936e+00 -4.03882e+00
       L  4.25734e+00  5.95085e+00  2.20358e-01
6
# CELL(abcABC):  459.05226   459.05226   459.05226    90.00000    90.00000    90.00000  Step:          11  Bead:       0 x_centroid{angstrom}  cell{atomic_unit}
       C -3.47169e-01 -9.53138e-02  1.19203e-01
       O  8.55299e-01  2.44522e-01 -2.19410e-01
       H -1.57608e-01  8.14791e-01 -6.16165e-01
       H -4.48220e-01 -8.93923e-01  8.61585e-01
       L -1.91118e+00 -2.54067e+00 -4.32362e+00
       L  4.58138e+00  6.26227e+00  2.26364e-01
6
# CELL(abcABC):  459.05226   459.05226   459.05226    90.00000    90.00000    90.00000  Step:          12  Bead:       0 x_centroid{angstrom}  cell{atomic_unit}
       C -3.45990e-01 -9.30536e-02  1.22002e-01
       O  8.55913e-01  2.42211e-01 -2.22028e-01
       H -1.79549e-01  8.15777e-01 -6.12948e-01
       H -4.50179e-01 -8.85257e-01  8.66692e-01
       L -1.99183e+00 -2.63626e+00 -4.57965e+00
       L  4.85259e+00  6.54788e+00  2.63557e-01
6
# CELL(abcABC):  459.05226   459.05226   459.05226    90.00000    90.00000    90.00000  Step:          13  Bead:       0 x_centroid{angstrom}  cell{atomic_unit}
       C -3.44367e-01 -9.03418e-02  1.24356e-01
       O  8.56538e-01  2.39601e-01 -2.24342e-01
       H -2.05529e-01  8.16570e-01 -6.08528e-01
       H -4.53553e-01 -8.77003e-01  8.71089e-01
       L -2.04181e+00 -2.74012e+00 -4.80274e+00
       L  5.05988e+00  6.77471e+00  2.40965e-01
6
# CELL(abcABC):  459.05226   459.05226   459.05226    90.00000    90.00000    90.00000  Step:          14  Bead:       0 x_centroid{angstrom}  cell{atomic_unit}
       C -3.42220e-01 -8.72997e-02  1.26033e-01
       O  8.57223e-01  2.36807e-01 -2.26189e-01
       H -2.37882e-01  8.15439e-01 -6.03428e-01
       H -4.57751e-01 -8.67828e-01  8.75425e-01
       L -2.05658e+00 -2.80536e+00 -4.95994e+00
       L  5.25991e+00  6.95212e+00  2.26730e-01
6
# CELL(abcABC):  459.05226   459.05226   459.05226    90.00000    90.00000    90.00000  Step:          15  Bead:       0 x_centroid{angstrom}  cell{atomic_unit}
       C -3.39504e-01 -8.35897e-02  1.27283e-01
       O  8.57985e-01  2.33542e-01 -2.27804e-01
       H -2.78055e-01  8.13865e-01 -5.97318e-01
       H -4.62103e-01 -8.58685e-01  8.80154e-01
       L -2.12633e+00 -2.84332e+00 -5.09427e+00
       L  5.45915e+00  7.08298e+00  1.69166e-01
6
# CELL(abcABC):  459.05226   459.05226   459.05226    90.00000    90.00000    90.00000  Step:          16  Bead:       0 x_centroid{angstrom}  cell{atomic_unit}
       C -3.35722e-01 -7.94166e-02  1.28112e-01
       O  8.58651e-01  2.29946e-01 -2.29252e-01
       H -3.28102e-01  8.11523e-01 -5.89398e-01
       H -4.67739e-01 -8.48958e-01  8.85377e-01
       L -2.18628e+00 -2.91250e+00 -5.15649e+00
       L  5.59434e+00  7.08066e+00  1.62316e-01
6
# CELL(abcABC):  459.05226   459.05226   459.05226    90.00000    90.00000    90.00000  Step:          17  Bead:       0 x_centroid{angstrom}  cell{atomic_unit}
       C -3.30850e-01 -7.45155e-02  1.28395e-01
       O  8.59306e-01  2.25902e-01 -2.30435e-01
       H -3.89353e-01  8.07011e-01 -5.79574e-01
       H -4.74959e-01 -8.38636e-01  8.90970e-01
       L -2.22476e+00 -2.91935e+00 -5.16889e+00
       L  5.67474e+00  7.06636e+00  1.44708e-01
6
# CELL(abcABC):  459.05226   459.05226   459.05226    90.00000    90.00000    90.00000  Step:          18  Bead:       0 x_centroid{angstrom}  cell{atomic_unit}
       C -3.24826e-01 -6.88824e-02  1.27933e-01
       O  8.60019e-01  2.21379e-01 -2.31134e-01
       H -4.62235e-01  8.00485e-01 -5.67983e-01
       H -4.85193e-01 -8.27442e-01  8.95977e-01
       L -2.24593e+00 -2.86771e+00 -5.12251e+00
       L  5.71870e+00  7.00055e+00  1.19942e-01
6
# CELL(abcABC):  459.05226   459.05226   459.05226    90.00000    90.00000    90.00000  Step:          19  Bead:       0 x_centroid{angstrom}  cell{atomic_unit}
       C -3.17544e-01 -6.21987e-02  1.26936e-01
       O  8.60581e-01  2.16277e-01 -2.31633e-01
       H -5.46163e-01  7.90991e-01 -5.52765e-01
       H -4.96972e-01 -8.16563e-01  9.00560e-01
       L -2.20916e+00 -2.81033e+00 -5.05334e+00
       L  5.68832e+00  6.86907e+00  5.07036e-02
6
# CELL(abcABC):  459.05226   459.05226   459.05226    90.00000    90.00000    90.00000  Step:          20  Bead:       0 x_centroid{angstrom}  cell{atomic_unit}
       C -3.09095e-01 -5.46225e-02  1.25417e-01
       O  8.61084e-01  2.10645e-01 -2.31775e-01
       H -6.40384e-01  7.79276e-01 -5.35285e-01
       H -5.11366e-01 -8.05691e-01  9.03419e-01
       L -2.20595e+00 -2.65247e+00 -4.96764e+00
       L  5.58658e+00  6.65193e+00  8.06581e-03
6
# CELL(abcABC):  459.05226   459.05226   459.05226    90.00000    90.00000    90.00000  Step:          21  Bead:       0 x_centroid{angstrom}  cell{atomic_unit}
       C -2.99458e-01 -4.63430e-02  1.23339e-01
       O  8.61434e-01  2.04736e-01 -2.31692e-01
       H -7.44612e-01  7.63598e-01 -5.14310e-01
       H -5.27461e-01 -7.94793e-01  9.05814e-01
       L -2.17310e+00 -2.55062e+00 -4.83074e+00
       L  5.46080e+00  6.38551e+00 -1.72914e-02
6
# CELL(abcABC):  459.05226   459.05226   459.05226    90.00000    90.00000    90.00000  Step:          22  Bead:       0 x_centroid{angstrom}  cell{atomic_unit}
       C -2.88743e-01 -3.72593e-02  1.20722e-01
       O  8.61482e-01  1.98463e-01 -2.31213e-01
       H -8.55197e-01  7.41931e-01 -4.89964e-01
       H -5.45275e-01 -7.81688e-01  9.04975e-01
       L -2.11162e+00 -2.41577e+00 -4.65217e+00
       L  5.31091e+00  6.05230e+00 -3.99881e-02
6
# CELL(abcABC):  459.05226   459.05226   459.05226    90.00000    90.00000    90.00000  Step:          23  Bead:       0 x_centroid{angstrom}  cell{atomic_unit}
       C -2.77524e-01 -2.76441e-02  1.17663e-01
       O  8.61321e-01  1.92012e-01 -2.30613e-01
       H -9.69606e-01  7.15930e-01 -4.61137e-01
       H -5.61944e-01 -7.67747e-01  9.02970e-01
       L -2.00816e+00 -2.22437e+00 -4.37105e+00
       L  5.09382e+00  5.67009e+00 -1.37771e-01
6
# CELL(abcABC):  459.05226   459.05226   459.05226    90.00000    90.00000    90.00000  Step:          24  Bead:       0 x_centroid{angstrom}  cell{atomic_unit}
       C -2.65790e-01 -1.74392e-02  1.14198e-01
       O  8.60835e-01  1.85483e-01 -2.29915e-01
       H -1.08369e+00  6.83429e-01 -4.26632e-01
       H -5.79896e-01 -7.53090e-01  8.98547e-01
       L -1.87230e+00 -2.06382e+00 -4.00389e+00
       L  4.83750e+00  5.27491e+00 -2.60251e-01
6
# CELL(abcABC):  459.05226   459.05226   459.05226    90.00000    90.00000    90.00000  Step:          25  Bead:       0 x_centroid{angstrom}  cell{atomic_unit}
       C -2.53864e-01 -6.91816e-03  1.10657e-01
       O  8.59924e-01  1.78865e-01 -2.29135e-01
       H -1.19263e+00  6.46910e-01 -3.89024e-01
       H -5.98490e-01 -7.36778e-01  8.90605e-01
       L -1.72679e+00 -1.88024e+00 -3.61695e+00
       L  4.49053e+00  4.88105e+00 -3.90658e-01
6
# CELL(abcABC):  459.05226   459.05226   459.05226    90.00000    90.00000    90.00000  Step:          26  Bead:       0 x_centroid{angstrom}  cell{atomic_unit}
       C -2.42574e-01  3.68995e-03  1.07007e-01
       O  8.58949e-01  1.72490e-01 -2.28320e-01
       H -1.29515e+00  6.05958e-01 -3.48991e-01
       H -6.14931e-01 -7.20923e-01  8.80983e-01
       L -1.56524e+00 -1.67582e+00 -3.17521e+00
       L  4.13970e+00  4.47120e+00 -5.51640e-01
6
# CELL(abcABC):  459.05226   459.05226   459.05226    90.00000    90.00000    90.00000  Step:          27  Bead:       0 x_centroid{angstrom}  cell{atomic_unit}
       C -2.31896e-01  1.44389e-02  1.03472e-01
       O  8.57780e-01  1.66042e-01 -2.27661e-01
       H -1.39017e+00  5.62392e-01 -3.06450e-01
       H -6.28505e-01 -7.02947e-01  8.69946e-01
       L -1.35842e+00 -1.45799e+00 -2.69918e+00
       L  3.76690e+00  3.98322e+00 -7.45871e-01
6
# CELL(abcABC):  459.05226   459.05226   459.05226    90.00000    90.00000    90.00000  Step:          28  Bead:       0 x_centroid{angstrom}  cell{atomic_unit}
       C -2.22429e-01  2.50067e-02  1.00170e-01
       O  8.56868e-01  1.59666e-01 -2.27115e-01
       H -1.47722e+00  5.17210e-01 -2.63848e-01
       H -6.39723e-01 -6.82313e-01  8.57851e-01
       L -1.13179e+00 -1.22805e+00 -2.19634e+00
       L  3.40688e+00  3.43165e+00 -9.16163e-01
6
# CELL(abcABC):  459.05226   459.05226   459.05226    90.00000    90.00000    90.00000  Step:          29  Bead:       0 x_centroid{angstrom}  cell{atomic_unit}
       C -2.14582e-01  3.51615e-02  9.74662e-02
       O  8.56283e-01  1.53590e-01 -2.26801e-01
       H -1.55397e+00  4.72670e-01 -2.23203e-01
       H -6.47088e-01 -6.62124e-01  8.44238e-01
       L -9.17682e-01 -1.00788e+00 -1.67210e+00
       L  3.01120e+00  2.83593e+00 -1.09030e+00
6
# CELL(abcABC):  459.05226   459.05226   459.05226    90.00000    90.00000    90.00000  Step:          30  Bead:       0 x_centroid{angstrom}  cell{atomic_unit}
       C -2.08522e-01  4.48954e-02  9.52615e-02
       O  8.56201e-01  1.47719e-01 -2.26719e-01
       H -1.62072e+00  4.29027e-01 -1.84571e-01
       H -6.51147e-01 -6.41054e-01  8.30388e-01
       L -6.85962e-01 -8.17225e-01 -1.14438e+00
       L  2.60194e+00  2.22752e+00 -1.26319e+00
6
# CELL(abcABC):  459.05226   459.05226   459.05226    90.00000    90.00000    90.00000  Step:          31  Bead:       0 x_centroid{angstrom}  cell{atomic_unit}
       C -2.04626e-01  5.43648e-02  9.39081e-02
       O  8.56795e-01  1.42050e-01 -2.27225e-01
       H -1.67706e+00  3.86121e-01 -1.48021e-01
       H -6.50572e-01 -6.20762e-01  8.17791e-01
       L -4.51229e-01 -6.29767e-01 -5.84108e-01
       L  2.19031e+00  1.59667e+00 -1.44279e+00
6
# CELL(abcABC):  459.05226   459.05226   459.05226    90.00000    90.00000    90.00000  Step:          32  Bead:       0 x_centroid{angstrom}  cell{atomic_unit}
       C -2.02921e-01  6.30889e-02  9.29838e-02
       O  8.58094e-01  1.37000e-01 -2.28031e-01
       H -1.72266e+00  3.44738e-01 -1.14441e-01
       H -6.45792e-01 -6.02937e-01  8.07822e-01
       L -2.34160e-01 -4.37123e-01 -3.92773e-02
       L  1.76546e+00  9.66803e-01 -1.62679e+00
6
# CELL(abcABC):  459.05226   459.05226   459.05226    90.00000    90.00000    90.00000  Step:          33  Bead:       0 x_centroid{angstrom}  cell{atomic_unit}
       C -2.03387e-01  7.10319e-02  9.26742e-02
       O  8.60153e-01  1.32450e-01 -2.29198e-01
       H -1.75850e+00  3.06266e-01 -8.54455e-02
       H -6.36954e-01 -5.86616e-01  8.00855e-01
       L  2.98798e-02 -2.61530e-01  4.56989e-01
       L  1.26713e+00  3.06365e-01 -1.78551e+00
6
# CELL(abcABC):  459.05226   459.05226   459.05226    90.00000    90.00000    90.00000  Step:          34  Bead:       0 x_centroid{angstrom}  cell{atomic_unit}
       C -2.06131e-01  7.82091e-02  9.32031e-02
       O  8.63163e-01  1.28262e-01 -2.31021e-01
       H -1.78524e+00  2.72793e-01 -6.04293e-02
       H -6.25169e-01 -5.71915e-01  7.98261e-01
       L  3.54774e-01 -1.36213e-01  9.83163e-01
       L  7.17707e-01 -3.36567e-01 -1.93826e+00
6
# CELL(abcABC):  459.05226   459.05226   459.05226    90.00000    90.00000    90.00000  Step:          35  Bead:       0 x_centroid{angstrom}  cell{atomic_unit}
       C -2.10879e-01  8.47350e-02  9.43250e-02
       O  8.66906e-01  1.24435e-01 -2.33284e-01
       H -1.80380e+00  2.44068e-01 -4.06907e-02
       H -6.09289e-01 -5.59919e-01  8.00883e-01
       L  6.77230e-01  1.09174e-02  1.48900e+00
       L  9.23831e-02 -1.00095e+00 -2.09099e+00
6
# CELL(abcABC):  459.05226   459.05226   459.05226    90.00000    90.00000    90.00000  Step:          36  Bead:       0 x_centroid{angstrom}  cell{atomic_unit}
       C -2.17420e-01  9.05293e-02  9.58632e-02
       O  8.71275e-01  1.21162e-01 -2.35899e-01
       H -1.81286e+00  2.19104e-01 -2.53743e-02
       H -5.91428e-01 -5.51770e-01  8.08517e-01
       L  9.31890e-01  1.39207e-01  2.06749e+00
       L -5.38018e-01 -1.64100e+00 -2.24143e+00
6
# CELL(abcABC):  459.05226   459.05226   459.05226    90.00000    90.00000    90.00000  Step:          37  Bead:       0 x_centroid{angstrom}  cell{atomic_unit}
       C -2.25481e-01  9.56488e-02  9.78043e-02
       O  8.75957e-01  1.18385e-01 -2.38854e-01
       H -1.81247e+00  1.97956e-01 -1.60828e-02
       H -5.69885e-01 -5.47269e-01  8.22753e-01
       L  1.17148e+00  2.36551e-01  2.68801e+00
       L -1.16119e+00 -2.25793e+00 -2.39307e+00
6
# CELL(abcABC):  459.05226   459.05226   459.05226    90.00000    90.00000    90.00000  Step:          38  Bead:       0 x_centroid{angstrom}  cell{atomic_unit}
       C -2.34504e-01  1.00161e-01  9.99135e-02
       O  8.80629e-01  1.16091e-01 -2.42074e-01
       H -1.80351e+00  1.82023e-01 -1.11792e-02
       H -5.45281e-01 -5.48463e-01  8.43573e-01
       L  1.42141e+00  3.81387e-01  3.28284e+00
       L -1.77886e+00 -2.82178e+00 -2.53951e+00
6
# CELL(abcABC):  459.05226   459.05226   459.05226    90.00000    90.00000    90.00000  Step:          39  Bead:       0 x_centroid{angstrom}  cell{atomic_unit}
       C -2.44328e-01  1.04047e-01  1.02252e-01
       O  8.85144e-01  1.14011e-01 -2.45559e-01
       H -1.78374e+00  1.72363e-01 -1.16840e-02
       H -5.19421e-01 -5.51845e-01  8.71296e-01
       L  1.61074e+00  5.30997e-01  3.82781e+00
       L -2.40909e+00 -3.41362e+00 -2.63271e+00
6
# CELL(abcABC):  459.05226   459.05226   459.05226    90.00000    90.00000    90.00000  Step:          40  Bead:       0 x_centroid{angstrom}  cell{atomic_unit}
       C -2.54883e-01  1.07366e-01  1.04902e-01
       O  8.89492e-01  1.12236e-01 -2.49186e-01
       H -1.75456e+00  1.66556e-01 -1.79276e-02
       H -4.91588e-01 -5.57206e-01  9.03318e-01
       L  1.71610e+00  7.02899e-01  4.29297e+00
       L -2.95559e+00 -3.96099e+00 -2.71282e+00
6
# CELL(abcABC):  459.05226   459.05226   459.05226    90.00000    90.00000    90.00000  Step:          41  Bead:       0 x_centroid{angstrom}  cell{atomic_unit}
       C -2.65984e-01  1.09825e-01  1.07942e-01
       O  8.93395e-01  1.10866e-01 -2.53076e-01
       H -1.71572e+00  1.64859e-01 -2.82842e-02
       H -4.59877e-01 -5.62886e-01  9.38990e-01
       L  1.82565e+00  8.41345e-01  4.70928e+00
       L -3.46980e+00 -4.44532e+00 -2.75853e+00
6
# CELL(abcABC):  459.05226   459.05226   459.05226    90.00000    90.00000    90.00000  Step:          42  Bead:       0 x_centroid{angstrom}  cell{atomic_unit}
       C -2.77322e-01  1.11432e-01  1.11397e-01
       O  8.96640e-01  1.09872e-01 -2.57269e-01
       H -1.66634e+00  1.66368e-01 -4.09524e-02
       H -4.25461e-01 -5.67554e-01  9.76896e-01
       L  1.91626e+00  9.95172e-01  5.09889e+00
       L -3.94358e+00 -4.95006e+00 -2.84893e+00
6
# CELL(abcABC):  459.05226   459.05226   459.05226    90.00000    90.00000    90.00000  Step:          43  Bead:       0 x_centroid{angstrom}  cell{atomic_unit}
       C -2.88493e-01  1.12313e-01  1.15171e-01
       O  8.98977e-01  1.09066e-01 -2.61433e-01
       H -1.60635e+00  1.72116e-01 -5.85372e-02
       H -3.89238e-01 -5.70879e-01  1.01553e+00
       L  1.99908e+00  1.16077e+00  5.36327e+00
       L -4.39084e+00 -5.38246e+00 -2.99014e+00
6
# CELL(abcABC):  459.05226   459.05226   459.05226    90.00000    90.00000    90.00000  Step:          44  Bead:       0 x_centroid{angstrom}  cell{atomic_unit}
       C -2.99525e-01  1.11958e-01  1.19426e-01
       O  9.00520e-01  1.08723e-01 -2.65675e-01
       H -1.53579e+00  1.82153e-01 -7.99370e-02
       H -3.52637e-01 -5.71075e-01  1.05351e+00
       L  2.05992e+00  1.27398e+00  5.59197e+00
       L -4.81881e+00 -5.78571e+00 -3.12090e+00
6
# CELL(abcABC):  459.05226   459.05226   459.05226    90.00000    90.00000    90.00000  Step:          45  Bead:       0 x_centroid{angstrom}  cell{atomic_unit}
       C -3.10154e-01  1.10483e-01  1.24244e-01
       O  9.01178e-01  1.08740e-01 -2.70037e-01
       H -1.45496e+00  1.96194e-01 -1.04932e-01
       H -3.17064e-01 -5.67634e-01  1.09028e+00
       L  2.06117e+00  1.35733e+00  5.78647e+00
       L -5.14871e+00 -6.19066e+00 -3.19350e+00
6
# CELL(abcABC):  459.05226   459.05226   459.05226    90.00000    90.00000    90.00000  Step:          46  Bead:       0 x_centroid{angstrom}  cell{atomic_unit}
       C -3.19519e-01  1.07824e-01  1.29734e-01
       O  9.00509e-01  1.09186e-01 -2.74356e-01
       H -1.36552e+00  2.12321e-01 -1.35248e-01
       H -2.84146e-01 -5.59022e-01  1.12367e+00
       L  2.09418e+00  1.39217e+00  5.88904e+00
       L -5.45405e+00 -6.48138e+00 -3.18201e+00
6
# CELL(abcABC):  459.05226   459.05226   459.05226    90.00000    90.00000    90.00000  Step:          47  Bead:       0 x_centroid{angstrom}  cell{atomic_unit}
       C -3.27400e-01  1.04309e-01  1.36022e-01
       O  8.98880e-01  1.09747e-01 -2.78891e-01
       H -1.27486e+00  2.31954e-01 -1.68950e-01
       H -2.54883e-01 -5.45576e-01  1.15438e+00
       L  2.09194e+00  1.44120e+00  5.89010e+00
       L -5.73894e+00 -6.69421e+00 -3.09908e+00
6
# CELL(abcABC):  459.05226   459.05226   459.05226    90.00000    90.00000    90.00000  Step:          48  Bead:       0 x_centroid{angstrom}  cell{atomic_unit}
       C -3.32837e-01  9.98428e-02  1.43205e-01
       O  8.96146e-01  1.10512e-01 -2.83380e-01
       H -1.19106e+00  2.54964e-01 -2.08037e-01
       H -2.30397e-01 -5.27432e-01  1.17908e+00
       L  2.08295e+00  1.48545e+00  5.86526e+00
       L -5.91496e+00 -6.88410e+00 -2.99211e+00
6
# CELL(abcABC):  459.05226   459.05226   459.05226    90.00000    90.00000    90.00000  Step:          49  Bead:       0 x_centroid{angstrom}  cell{atomic_unit}
       C -3.35061e-01  9.40680e-02  1.51606e-01
       O  8.92339e-01  1.11534e-01 -2.87885e-01
       H -1.12438e+00  2.82850e-01 -2.56154e-01
       H -2.10099e-01 -5.02678e-01  1.19859e+00
       L  2.08082e+00  1.54491e+00  5.73916e+00
       L -6.00216e+00 -7.04313e+00 -2.85658e+00
6
# CELL(abcABC):  459.05226   459.05226   459.05226    90.00000    90.00000    90.00000  Step:          50  Bead:       0 x_centroid{angstrom}  cell{atomic_unit}
       C -3.33426e-01  8.71992e-02  1.61272e-01
       O  8.87347e-01  1.12674e-01 -2.92226e-01
       H -1.07989e+00  3.17735e-01 -3.15866e-01
       H -1.94816e-01 -4.73776e-01  1.21202e+00
       L  2.11767e+00  1.56723e+00  5.58075e+00
       L -6.05835e+00 -7.13927e+00 -2.68570e+00
6
# CELL(abcABC):  459.05226   459.05226   459.05226    90.00000    90.00000    90.00000  Step:          51  Bead:       0 x_centroid{angstrom}  cell{atomic_unit}
       C -3.27967e-01  7.93158e-02  1.72112e-01
       O  8.81189e-01  1.13804e-01 -2.96311e-01
       H -1.05696e+00  3.58979e-01 -3.88455e-01
       H -1.85039e-01 -4.38986e-01  1.22032e+00
       L  2.12158e+00  1.56291e+00  5.34655e+00
       L -6.08663e+00 -7.17315e+00 -2.49349e+00
6
# CELL(abcABC):  459.05226   459.05226   459.05226    90.00000    90.00000    90.00000  Step:          52  Bead:       0 x_centroid{angstrom}  cell{atomic_unit}
       C -3.19647e-01  7.07259e-02  1.83859e-01
       O  8.74142e-01  1.14906e-01 -3.00314e-01
       H -1.04770e+00  4.05768e-01 -4.68246e-01
       H -1.81550e-01 -4.00923e-01  1.22372e+00
       L  2.06638e+00  1.60161e+00  5.02677e+00
       L -6.08763e+00 -7.18753e+00 -2.27390e+00
6
# CELL(abcABC):  459.05226   459.05226   459.05226    90.00000    90.00000    90.00000  Step:          53  Bead:       0 x_centroid{angstrom}  cell{atomic_unit}
       C -3.09112e-01  6.17934e-02  1.95570e-01
       O  8.66260e-01  1.16052e-01 -3.04055e-01
       H -1.04492e+00  4.53612e-01 -5.47918e-01
       H -1.84722e-01 -3.60504e-01  1.22331e+00
       L  2.00165e+00  1.60101e+00  4.61966e+00
       L -6.04596e+00 -7.20953e+00 -2.01854e+00
6
# CELL(abcABC):  459.05226   459.05226   459.05226    90.00000    90.00000    90.00000  Step:          54  Bead:       0 x_centroid{angstrom}  cell{atomic_unit}
       C -2.96882e-01  5.30145e-02  2.06523e-01
       O  8.57514e-01  1.17080e-01 -3.07522e-01
       H -1.04342e+00  5.00142e-01 -6.21023e-01
       H -1.93170e-01 -3.18754e-01  1.22105e+00
       L  1.88785e+00  1.62224e+00  4.15942e+00
       L -5.91050e+00 -7.22879e+00 -1.80715e+00
6
# CELL(abcABC):  459.05226   459.05226   459.05226    90.00000    90.00000    90.00000  Step:          55  Bead:       0 x_centroid{angstrom}  cell{atomic_unit}
       C -2.83441e-01  4.44815e-02  2.16341e-01
       O  8.48070e-01  1.18166e-01 -3.10685e-01
       H -1.04067e+00  5.42441e-01 -6.85727e-01
       H -2.06213e-01 -2.76616e-01  1.21913e+00
       L  1.74925e+00  1.63188e+00  3.65318e+00
       L -5.67550e+00 -7.22951e+00 -1.57791e+00
6
# CELL(abcABC):  459.05226   459.05226   459.05226    90.00000    90.00000    90.00000  Step:          56  Bead:       0 x_centroid{angstrom}  cell{atomic_unit}
       C -2.69007e-01  3.66870e-02  2.24314e-01
       O  8.37963e-01  1.19098e-01 -3.13346e-01
       H -1.03505e+00  5.79340e-01 -7.40223e-01
       H -2.23496e-01 -2.35454e-01  1.22101e+00
       L  1.62265e+00  1.65890e+00  3.13417e+00
       L -5.35367e+00 -7.19206e+00 -1.32478e+00
6
# CELL(abcABC):  459.05226   459.05226   459.05226    90.00000    90.00000    90.00000  Step:          57  Bead:       0 x_centroid{angstrom}  cell{atomic_unit}
       C -2.53728e-01  2.95120e-02  2.30694e-01
       O  8.27390e-01  1.20151e-01 -3.15731e-01
       H -1.02766e+00  6.09829e-01 -7.85344e-01
       H -2.45232e-01 -1.97267e-01  1.22805e+00
       L  1.44749e+00  1.66970e+00  2.63532e+00
       L -4.99919e+00 -7.02890e+00 -1.00659e+00
6
# CELL(abcABC):  459.05226   459.05226   459.05226    90.00000    90.00000    90.00000  Step:          58  Bead:       0 x_centroid{angstrom}  cell{atomic_unit}
       C -2.37534e-01  2.30850e-02  2.35387e-01
       O  8.16241e-01  1.21114e-01 -3.17937e-01
       H -1.01888e+00  6.34572e-01 -8.18983e-01
       H -2.70098e-01 -1.60898e-01  1.24093e+00
       L  1.21376e+00  1.75595e+00  2.08987e+00
       L -4.57529e+00 -6.76120e+00 -7.32138e-01
6
# CELL(abcABC):  459.05226   459.05226   459.05226    90.00000    90.00000    90.00000  Step:          59  Bead:       0 x_centroid{angstrom}  cell{atomic_unit}
       C -2.21308e-01  1.75431e-02  2.38400e-01
       O  8.05219e-01  1.21914e-01 -3.19959e-01
       H -1.00992e+00  6.53374e-01 -8.40661e-01
       H -2.97593e-01 -1.26537e-01  1.25896e+00
       L  1.00464e+00  1.82689e+00  1.54137e+00
       L -4.14637e+00 -6.49633e+00 -4.46473e-01
6
# CELL(abcABC):  459.05226   459.05226   459.05226    90.00000    90.00000    90.00000  Step:          60  Bead:       0 x_centroid{angstrom}  cell{atomic_unit}
       C -2.05314e-01  1.28386e-02  2.39900e-01
       O  7.94516e-01  1.22654e-01 -3.21933e-01
       H -1.00120e+00  6.65099e-01 -8.50207e-01
       H -3.27134e-01 -9.41512e-02  1.28212e+00
       L  8.00226e-01  1.87040e+00  9.39223e-01
       L -3.69159e+00 -6.17273e+00 -1.50133e-01
6
# CELL(abcABC):  459.05226   459.05226   459.05226    90.00000    90.00000    90.00000  Step:          61  Bead:       0 x_centroid{angstrom}  cell{atomic_unit}
       C -1.90034e-01  9.06973e-03  2.40437e-01
       O  7.84577e-01  1.23141e-01 -3.23943e-01
       H -9.92715e-01  6.70759e-01 -8.49601e-01
       H -3.60100e-01 -6.28775e-02  1.30724e+00
       L  6.10956e-01  1.92500e+00  3.11983e-01
       L -3.19347e+00 -5.78552e+00  9.97917e-02
6
# CELL(abcABC):  459.05226   459.05226   459.05226    90.00000    90.00000    90.00000  Step:          62  Bead:       0 x_centroid{angstrom}  cell{atomic_unit}
       C -1.76067e-01  6.25304e-03  2.40256e-01
       O  7.75697e-01  1.23362e-01 -3.26076e-01
       H -9.84614e-01  6.70659e-01 -8.38636e-01
       H -3.93884e-01 -3.29533e-02  1.33254e+00
       L  3.98700e-01  1.92934e+00 -3.84725e-01
       L -2.58320e+00 -5.35474e+00  3.20221e-01
6
# CELL(abcABC):  459.05226   459.05226   459.05226    90.00000    90.00000    90.00000  Step:          63  Bead:       0 x_centroid{angstrom}  cell{atomic_unit}
       C -1.64116e-01  4.38526e-03  2.39584e-01
       O  7.68409e-01  1.23276e-01 -3.28185e-01
       H -9.77538e-01  6.64883e-01 -8.19164e-01
       H -4.27882e-01 -3.78747e-03  1.35483e+00
       L  1.39991e-01  1.85117e+00 -1.13732e+00
       L -1.96984e+00 -4.86955e+00  5.37545e-01
6
# CELL(abcABC):  459.05226   459.05226   459.05226    90.00000    90.00000    90.00000  Step:          64  Bead:       0 x_centroid{angstrom}  cell{atomic_unit}
       C -1.54032e-01  3.37846e-03  2.38972e-01
       O  7.62563e-01  1.22974e-01 -3.30736e-01
       H -9.72322e-01  6.54131e-01 -7.90200e-01
       H -4.60641e-01  2.35126e-02  1.37393e+00
       L -1.78256e-01  1.75894e+00 -1.87173e+00
       L -1.32872e+00 -4.31278e+00  7.79420e-01
6
# CELL(abcABC):  459.05226   459.05226   459.05226    90.00000    90.00000    90.00000  Step:          65  Bead:       0 x_centroid{angstrom}  cell{atomic_unit}
       C -1.46874e-01  3.37494e-03  2.38804e-01
       O  7.58958e-01  1.22419e-01 -3.33753e-01
       H -9.69825e-01  6.37819e-01 -7.52343e-01
       H -4.91383e-01  4.83965e-02  1.38625e+00
       L -4.97731e-01  1.62669e+00 -2.61103e+00
       L -6.88396e-01 -3.66897e+00  1.01264e+00
6
# CELL(abcABC):  459.05226   459.05226   459.05226    90.00000    90.00000    90.00000  Step:          66  Bead:       0 x_centroid{angstrom}  cell{atomic_unit}
       C -1.43127e-01  4.38633e-03  2.39442e-01