6
# CELL(abcABC):  459.05226   459.05226   459.05226    90.00000    90.00000    90.00000  Step:           0  Bead:       0 x_centroid{angstrom}  cell{atomic_unit}
       C -3.39887e-01 -1.13437e-01  8.06659e-02
       O  8.43483e-01  2.62672e-01 -1.81512e-01
       H -7.35799e-02  8.16467e-01 -6.61432e-01
       H -4.30016e-01 -9.65701e-01  7.62278e-01
       L  0.00000e+00  0.00000e+00  0.00000e+00
       L  0.00000e+00  0.00000e+00  0.00000e+00
6
# CELL(abcABC):  459.05226   459.05226   459.05226    90.00000    90.00000    90.00000  Step:           1  Bead:       0 x_centroid{angstrom}  cell{atomic_unit}
       C -3.42301e-01 -1.13885e-01  8.04038e-02
       O  8.45839e-01  2.63552e-01 -1.81488e-01
       H -7.06804e-02  8.05479e-01 -6.58117e-01
       H -4.42196e-01 -9.63568e-01  7.62044e-01
       L  6.39749e-01  1.08918e-01 -3.37076e-01
       L  5.49794e-01  2.85123e-01 -3.08651e-01
6
# CELL(abcABC):  459.05226   459.05226   459.05226    90.00000    90.00000    90.00000  Step:           2  Bead:       0 x_centroid{angstrom}  cell{atomic_unit}
       C -3.44668e-01 -1.14166e-01  8.02532e-02
       O  8.48164e-01  2.64318e-01 -1.81433e-01
       H -6.75261e-02  7.95111e-01 -6.56692e-01
       H -4.54680e-01 -9.62209e-01  7.61923e-01
       L  1.26720e+00  2.19637e-01 -7.28867e-01
       L  1.08425e+00  5.36473e-01 -6.08667e-01
6
# CELL(abcABC):  459.05226   459.05226   459.05226    90.00000    90.00000    90.00000  Step:           3  Bead:       0 x_centroid{angstrom}  cell{atomic_unit}
       C -3.46838e-01 -1.14517e-01  7.98338e-02
       O  8.50361e-01  2.65022e-01 -1.81140e-01
       H -6.53742e-02  7.86030e-01 -6.55826e-01
       H -4.66463e-01 -9.60352e-01  7.61796e-01
       L  1.86391e+00  3.69352e-01 -1.11675e+00
       L  1.62436e+00  8.01728e-01 -9.37634e-01
6
# CELL(abcABC):  459.05226   459.05226   459.05226    90.00000    90.00000    90.00000  Step:           4  Bead:       0 x_centroid{angstrom}  cell{atomic_unit}
       C -3.48815e-01 -1.14997e-01  7.91734e-02
       O  8.52450e-01  2.65726e-01 -1.80631e-01
       H -6.35949e-02  7.78497e-01 -6.55610e-01
       H -4.78420e-01 -9.58504e-01  7.61725e-01
       L  2.38654e+00  5.44839e-01 -1.40693e+00
       L  2.15612e+00  1.05744e+00 -1.30757e+00
6
# CELL(abcABC):  459.05226   459.05226   459.05226    90.00000    90.00000    90.00000  Step:           5  Bead:       0 x_centroid{angstrom}  cell{atomic_unit}
       C -3.50655e-01 -1.15442e-01  7.87539e-02
       O  8.54502e-01  2.66268e-01 -1.80196e-01
       H -6.31542e-02  7.72255e-01 -6.57753e-01
       H -4.90071e-01 -9.55794e-01  7.62291e-01
       L  2.87971e+00  7.52457e-01 -1.69060e+00
       L  2.69485e+00  1.27093e+00 -1.63735e+00
6
# CELL(abcABC):  459.05226   459.05226   459.05226    90.00000    90.00000    90.00000  Step:           6  Bead:       0 x_centroid{angstrom}  cell{atomic_unit}
       C -3.52202e-01 -1.15864e-01  7.81297e-02
       O  8.56277e-01  2.66665e-01 -1.79546e-01
       H -6.29176e-02  7.68149e-01 -6.62255e-01
       H -5.00564e-01 -9.53169e-01  7.64240e-01
       L  3.29347e+00  9.60892e-01 -1.97978e+00
       L  3.24496e+00  1.44075e+00 -1.92548e+00
6
# CELL(abcABC):  459.05226   459.05226   459.05226    90.00000    90.00000    90.00000  Step:           7  Bead:       0 x_centroid{angstrom}  cell{atomic_unit}
       C -3.53477e-01 -1.15963e-01  7.75656e-02
       O  8.57817e-01  2.66765e-01 -1.78736e-01
       H -6.28331e-02  7.65159e-01 -6.69683e-01
       H -5.10431e-01 -9.50740e-01  7.65819e-01
       L  3.73139e+00  1.11894e+00 -2.25694e+00
       L  3.78236e+00  1.58871e+00 -2.18839e+00
6
# CELL(abcABC):  459.05226   459.05226   459.05226    90.00000    90.00000    90.00000  Step:           8  Bead:       0 x_centroid{angstrom}  cell{atomic_unit}
       C -3.54616e-01 -1.16174e-01  7.72005e-02
       O  8.59254e-01  2.66784e-01 -1.78045e-01
       H -6.31118e-02  7.64757e-01 -6.79855e-01
       H -5.19867e-01 -9.48322e-01  7.69622e-01
       L  4.14612e+00  1.24951e+00 -2.51468e+00
       L  4.21092e+00  1.81240e+00 -2.39891e+00
6
# CELL(abcABC):  459.05226   459.05226   459.05226    90.00000    90.00000    90.00000  Step:           9  Bead:       0 x_centroid{angstrom}  cell{atomic_unit}
       C -3.55377e-01 -1.16213e-01  7.67591e-02
       O  8.60364e-01  2.66563e-01 -1.77214e-01
       H -6.24035e-02  7.66080e-01 -6.91014e-01
       H -5.29554e-01 -9.45889e-01  7.73126e-01
       L  4.53305e+00  1.37423e+00 -2.78110e+00
       L  4.61730e+00  2.07407e+00 -2.63137e+00
6
# CELL(abcABC):  459.05226   459.05226   459.05226    90.00000    90.00000    90.00000  Step:          10  Bead:       0 x_centroid{angstrom}  cell{atomic_unit}
       C -3.55705e-01 -1.16119e-01  7.62807e-02
       O  8.61006e-01  2.66246e-01 -1.76438e-01
       H -6.12168e-02  7.67931e-01 -7.01811e-01
       H -5.37346e-01 -9.43992e-01  7.77561e-01
       L  4.83922e+00  1.45625e+00 -3.01023e+00
       L  4.92814e+00  2.32210e+00 -2.88004e+00
6
# CELL(abcABC):  459.05226   459.05226   459.05226    90.00000    90.00000    90.00000  Step:          11  Bead:       0 x_centroid{angstrom}  cell{atomic_unit}
       C -3.55901e-01 -1.16033e-01  7.53102e-02
       O  8.61376e-01  2.65759e-01 -1.75210e-01
       H -5.93807e-02  7.70438e-01 -7.13851e-01
       H -5.43046e-01 -9.40006e-01  7.81921e-01
       L  5.11974e+00  1.57991e+00 -3.24346e+00
       L  5.23652e+00  2.58665e+00 -3.08734e+00
6
# CELL(abcABC):  459.05226   459.05226   459.05226    90.00000    90.00000    90.00000  Step:          12  Bead:       0 x_centroid{angstrom}  cell{atomic_unit}
       C -3.55746e-01 -1.15625e-01  7.43795e-02
       O  8.61462e-01  2.65089e-01 -1.74113e-01
       H -5.80500e-02  7.71814e-01 -7.24449e-01
       H -5.47842e-01 -9.35813e-01  7.86377e-01
       L  5.34507e+00  1.69991e+00 -3.44283e+00
       L  5.46649e+00  2.82498e+00 -3.22720e+00
6
# CELL(abcABC):  459.05226   459.05226   459.05226    90.00000    90.00000    90.00000  Step:          13  Bead:       0 x_centroid{angstrom}  cell{atomic_unit}
       C -3.55225e-01 -1.15281e-01  7.34682e-02
       O  8.61087e-01  2.64372e-01 -1.73066e-01
       H -5.56229e-02  7.74550e-01 -7.34095e-01
       H -5.50665e-01 -9.31461e-01  7.90386e-01
       L  5.50531e+00  1.85097e+00 -3.55755e+00
       L  5.56733e+00  3.05571e+00 -3.33083e+00
6
# CELL(abcABC):  459.05226   459.05226   459.05226    90.00000    90.00000    90.00000  Step:          14  Bead:       0 x_centroid{angstrom}  cell{atomic_unit}
       C -3.54366e-01 -1.15057e-01  7.21877e-02
       O  8.60477e-01  2.63730e-01 -1.71813e-01
       H -5.41771e-02  7.77070e-01 -7.42419e-01
       H -5.52712e-01 -9.26624e-01  7.94119e-01
       L  5.59700e+00  1.94903e+00 -3.63223e+00
       L  5.57685e+00  3.22828e+00 -3.33439e+00
6
# CELL(abcABC):  459.05226   459.05226   459.05226    90.00000    90.00000    90.00000  Step:          15  Bead:       0 x_centroid{angstrom}  cell{atomic_unit}
       C -3.53208e-01 -1.14629e-01  7.10034e-02
       O  8.59480e-01  2.63071e-01 -1.70539e-01
       H -5.14586e-02  7.77778e-01 -7.50745e-01
       H -5.53404e-01 -9.22077e-01  7.96314e-01
       L  5.61740e+00  2.03083e+00 -3.65183e+00
       L  5.53410e+00  3.33282e+00 -3.27003e+00
6
# CELL(abcABC):  459.05226   459.05226   459.05226    90.00000    90.00000    90.00000  Step:          16  Bead:       0 x_centroid{angstrom}  cell{atomic_unit}
       C -3.51853e-01 -1.13917e-01  6.93718e-02
       O  8.58248e-01  2.62390e-01 -1.69167e-01
       H -4.85301e-02  7.76221e-01 -7.56587e-01
       H -5.52843e-01 -9.18311e-01  7.99795e-01
       L  5.56364e+00  2.15179e+00 -3.71849e+00
       L  5.46475e+00  3.43315e+00 -3.15284e+00
6
# CELL(abcABC):  459.05226   459.05226   459.05226    90.00000    90.00000    90.00000  Step:          17  Bead:       0 x_centroid{angstrom}  cell{atomic_unit}
       C -3.50106e-01 -1.13053e-01  6.75272e-02
       O  8.56537e-01  2.61588e-01 -1.67736e-01
       H -4.45272e-02  7.74585e-01 -7.60939e-01
       H -5.50441e-01 -9.14391e-01  8.03372e-01
       L  5.52355e+00  2.32464e+00 -3.77122e+00
       L  5.37896e+00  3.52657e+00 -3.02464e+00
6
# CELL(abcABC):  459.05226   459.05226   459.05226    90.00000    90.00000    90.00000  Step:          18  Bead:       0 x_centroid{angstrom}  cell{atomic_unit}
       C -3.48101e-01 -1.11870e-01  6.57160e-02
       O  8.54533e-01  2.60554e-01 -1.66438e-01
       H -3.97008e-02  7.72754e-01 -7.62750e-01
       H -5.47205e-01 -9.10393e-01  8.06115e-01
       L  5.47441e+00  2.53191e+00 -3.82812e+00
       L  5.18993e+00  3.60901e+00 -2.89512e+00
6
# CELL(abcABC):  459.05226   459.05226   459.05226    90.00000    90.00000    90.00000  Step:          19  Bead:       0 x_centroid{angstrom}  cell{atomic_unit}
       C -3.45968e-01 -1.10331e-01  6.39577e-02
       O  8.52333e-01  2.59291e-01 -1.65031e-01
       H -3.47075e-02  7.70203e-01 -7.65801e-01
       H -5.42502e-01 -9.06227e-01  8.07747e-01
       L  5.37410e+00  2.70736e+00 -3.88241e+00
       L  4.92087e+00  3.63122e+00 -2.77835e+00
6
# CELL(abcABC):  459.05226   459.05226   459.05226    90.00000    90.00000    90.00000  Step:          20  Bead:       0 x_centroid{angstrom}  cell{atomic_unit}
       C -3.43802e-01 -1.08882e-01  6.17449e-02
       O  8.50107e-01  2.58173e-01 -1.63342e-01
       H -3.01567e-02  7.67011e-01 -7.67344e-01
       H -5.37286e-01 -9.02662e-01  8.08763e-01
       L  5.20842e+00  2.85066e+00 -3.82533e+00
       L  4.63326e+00  3.66606e+00 -2.67959e+00
6
# CELL(abcABC):  459.05226   459.05226   459.05226    90.00000    90.00000    90.00000  Step:          21  Bead:       0 x_centroid{angstrom}  cell{atomic_unit}
       C -3.41699e-01 -1.07122e-01  5.94462e-02
       O  8.47923e-01  2.56942e-01 -1.61583e-01
       H -2.64270e-02  7.62148e-01 -7.67480e-01
       H -5.31181e-01 -8.99320e-01  8.08234e-01
       L  5.07862e+00  2.96474e+00 -3.69936e+00
       L  4.34830e+00  3.69712e+00 -2.55974e+00
6
# CELL(abcABC):  459.05226   459.05226   459.05226    90.00000    90.00000    90.00000  Step:          22  Bead:       0 x_centroid{angstrom}  cell{atomic_unit}
       C -3.39926e-01 -1.05670e-01  5.68066e-02
       O  8.45899e-01  2.55910e-01 -1.59506e-01
       H -2.21932e-02  7.58019e-01 -7.66129e-01
       H -5.24126e-01 -8.96157e-01  8.05167e-01
       L  4.85561e+00  3.08926e+00 -3.45952e+00
       L  4.02709e+00  3.67359e+00 -2.42784e+00
6
# CELL(abcABC):  459.05226   459.05226   459.05226    90.00000    90.00000    90.00000  Step:          23  Bead:       0 x_centroid{angstrom}  cell{atomic_unit}
       C -3.38342e-01 -1.04289e-01  5.43573e-02
       O  8.44022e-01  2.54800e-01 -1.57686e-01
       H -1.86232e-02  7.54109e-01 -7.63051e-01
       H -5.16431e-01 -8.91141e-01  8.02213e-01
       L  4.60390e+00  3.20227e+00 -3.21959e+00
       L  3.66205e+00  3.65559e+00 -2.33473e+00
6
# CELL(abcABC):  459.05226   459.05226   459.05226    90.00000    90.00000    90.00000  Step:          24  Bead:       0 x_centroid{angstrom}  cell{atomic_unit}
       C -3.37288e-01 -1.03051e-01  5.19566e-02
       O  8.42358e-01  2.53844e-01 -1.55766e-01
       H -1.34628e-02  7.49190e-01 -7.60574e-01
       H -5.07403e-01 -8.85820e-01  7.97656e-01
       L  4.33635e+00  3.34105e+00 -2.90574e+00
       L  3.28529e+00  3.56310e+00 -2.26858e+00
6
# CELL(abcABC):  459.05226   459.05226   459.05226    90.00000    90.00000    90.00000  Step:          25  Bead:       0 x_centroid{angstrom}  cell{atomic_unit}
       C -3.36365e-01 -1.01735e-01  4.96655e-02
       O  8.40836e-01  2.52935e-01 -1.53940e-01
       H -8.66602e-03  7.43833e-01 -7.58872e-01
       H -4.98605e-01 -8.81737e-01  7.94035e-01
       L  4.01909e+00  3.47199e+00 -2.57741e+00
       L  2.81961e+00  3.46847e+00 -2.16982e+00
6
# CELL(abcABC):  459.05226   459.05226   459.05226    90.00000    90.00000    90.00000  Step:          26  Bead:       0 x_centroid{angstrom}  cell{atomic_unit}
       C -3.35623e-01 -1.00565e-01  4.70456e-02
       O  8.39392e-01  2.52153e-01 -1.51823e-01
       H -2.91090e-03  7.38839e-01 -7.57056e-01
       H -4.89859e-01 -8.78239e-01  7.89589e-01
       L  3.65410e+00  3.56450e+00 -2.20572e+00
       L  2.41192e+00  3.31978e+00 -2.07874e+00
6
# CELL(abcABC):  459.05226   459.05226   459.05226    90.00000    90.00000    90.00000  Step:          27  Bead:       0 x_centroid{angstrom}  cell{atomic_unit}
       C -3.35451e-01 -9.97365e-02  4.44265e-02
       O  8.38509e-01  2.51673e-01 -1.49835e-01
       H  2.38200e-03  7.33862e-01 -7.55085e-01
       H -4.82770e-01 -8.75471e-01  7.86988e-01
       L  3.27862e+00  3.64667e+00 -1.79902e+00
       L  2.02042e+00  3.15233e+00 -1.98561e+00
6
# CELL(abcABC):  459.05226   459.05226   459.05226    90.00000    90.00000    90.00000  Step:          28  Bead:       0 x_centroid{angstrom}  cell{atomic_unit}
       C -3.35685e-01 -9.88012e-02  4.19116e-02
       O  8.37903e-01  2.51084e-01 -1.47895e-01
       H  8.00808e-03  7.29640e-01 -7.54828e-01
       H -4.75522e-01 -8.72924e-01  7.85580e-01
       L  2.86121e+00  3.67044e+00 -1.36540e+00
       L  1.59113e+00  2.91226e+00 -1.81100e+00
6
# CELL(abcABC):  459.05226   459.05226   459.05226    90.00000    90.00000    90.00000  Step:          29  Bead:       0 x_centroid{angstrom}  cell{atomic_unit}
       C -3.36341e-01 -9.79336e-02  3.95643e-02
       O  8.37554e-01  2.50501e-01 -1.46069e-01
       H  1.47356e-02  7.26770e-01 -7.55427e-01
       H -4.68392e-01 -8.70986e-01  7.84812e-01
       L  2.36294e+00  3.65634e+00 -9.47319e-01
       L  1.19287e+00  2.64010e+00 -1.58938e+00
6
# CELL(abcABC):  459.05226   459.05226   459.05226    90.00000    90.00000    90.00000  Step:          30  Bead:       0 x_centroid{angstrom}  cell{atomic_unit}
       C -3.37421e-01 -9.76761e-02  3.74343e-02
       O  8.37562e-01  2.50184e-01 -1.44379e-01
       H  2.23475e-02  7.25713e-01 -7.56206e-01
       H -4.62785e-01 -8.67756e-01  7.83812e-01
       L  1.81915e+00  3.58823e+00 -5.24107e-01
       L  8.21858e-01  2.31892e+00 -1.38962e+00
6
# CELL(abcABC):  459.05226   459.05226   459.05226    90.00000    90.00000    90.00000  Step:          31  Bead:       0 x_centroid{angstrom}  cell{atomic_unit}
       C -3.39325e-01 -9.79086e-02  3.56204e-02
       O  8.38260e-01  2.50164e-01 -1.42917e-01
       H  3.07605e-02  7.27402e-01 -7.57580e-01
       H -4.59087e-01 -8.66104e-01  7.83276e-01
       L  1.27170e+00  3.50591e+00 -1.37810e-01
       L  4.51168e-01  1.94971e+00 -1.18331e+00
6
# CELL(abcABC):  459.05226   459.05226   459.05226    90.00000    90.00000    90.00000  Step:          32  Bead:       0 x_centroid{angstrom}  cell{atomic_unit}
       C -3.41646e-01 -9.80031e-02  3.42899e-02
       O  8.39270e-01  2.50078e-01 -1.41785e-01
       H  3.99616e-02  7.29097e-01 -7.60700e-01
       H -4.56182e-01 -8.65060e-01  7.83964e-01
       L  7.37131e-01  3.41884e+00  2.97989e-01
       L  1.27530e-01  1.57311e+00 -1.03968e+00
6
# CELL(abcABC):  459.05226   459.05226   459.05226    90.00000    90.00000    90.00000  Step:          33  Bead:       0 x_centroid{angstrom}  cell{atomic_unit}
       C -3.44678e-01 -9.84722e-02  3.32572e-02
       O  8.40586e-01  2.50117e-01 -1.40856e-01
       H  5.29820e-02  7.35054e-01 -7.64575e-01
       H -4.53492e-01 -8.65785e-01  7.85085e-01
       L  2.00471e-01  3.35359e+00  7.28179e-01
       L -2.01448e-01  1.16627e+00 -9.04718e-01
6
# CELL(abcABC):  459.05226   459.05226   459.05226    90.00000    90.00000    90.00000  Step:          34  Bead:       0 x_centroid{angstrom}  cell{atomic_unit}
       C -3.48190e-01 -9.91119e-02  3.24964e-02
       O  8.42111e-01  2.50240e-01 -1.40225e-01
       H  6.90643e-02  7.43722e-01 -7.69139e-01
       H -4.51484e-01 -8.68502e-01  7.88413e-01
       L -3.15391e-01  3.21664e+00  1.14188e+00
       L -5.23082e-01  7.76106e-01 -7.85330e-01
6
# CELL(abcABC):  459.05226   459.05226   459.05226    90.00000    90.00000    90.00000  Step:          35  Bead:       0 x_centroid{angstrom}  cell{atomic_unit}
       C -3.52301e-01 -1.00131e-01  3.19367e-02
       O  8.43929e-01  2.50536e-01 -1.39772e-01
       H  8.89647e-02  7.53536e-01 -7.75387e-01
       H -4.50802e-01 -8.70572e-01  7.93847e-01
       L -8.38586e-01  3.02644e+00  1.53819e+00
       L -8.15633e-01  4.28942e-01 -6.47590e-01
6
# CELL(abcABC):  459.05226   459.05226   459.05226    90.00000    90.00000    90.00000  Step:          36  Bead:       0 x_centroid{angstrom}  cell{atomic_unit}
       C -3.57176e-01 -1.01535e-01  3.17482e-02
       O  8.46081e-01  2.51083e-01 -1.39567e-01
       H  1.12917e-01  7.64944e-01 -7.82539e-01
       H -4.50377e-01 -8.73606e-01  7.99726e-01
       L -1.34619e+00  2.75428e+00  1.91226e+00
       L -1.13771e+00  7.11060e-02 -5.20583e-01
6
# CELL(abcABC):  459.05226   459.05226   459.05226    90.00000    90.00000    90.00000  Step:          37  Bead:       0 x_centroid{angstrom}  cell{atomic_unit}
       C -3.62100e-01 -1.03666e-01  3.15422e-02
       O  8.47906e-01  2.52111e-01 -1.39455e-01
       H  1.43313e-01  7.77268e-01 -7.89618e-01
       H -4.50624e-01 -8.76479e-01  8.07177e-01
       L -1.81459e+00  2.45868e+00  2.29843e+00
       L -1.47889e+00 -2.89426e-01 -3.52220e-01
6
# CELL(abcABC):  459.05226   459.05226   459.05226    90.00000    90.00000    90.00000  Step:          38  Bead:       0 x_centroid{angstrom}  cell{atomic_unit}
       C -3.67462e-01 -1.05995e-01  3.18865e-02
       O  8.49618e-01  2.53396e-01 -1.39846e-01
       H  1.80135e-01  7.88415e-01 -7.96478e-01
       H -4.50338e-01 -8.79923e-01  8.15824e-01
       L -2.24270e+00  2.17510e+00  2.70557e+00
       L -1.77842e+00 -6.48188e-01 -1.80118e-01
6
# CELL(abcABC):  459.05226   459.05226   459.05226    90.00000    90.00000    90.00000  Step:          39  Bead:       0 x_centroid{angstrom}  cell{atomic_unit}
       C -3.73422e-01 -1.08693e-01  3.27894e-02
       O  8.51150e-01  2.54978e-01 -1.40627e-01
       H  2.26597e-01  7.99652e-01 -8.03538e-01
       H -4.49692e-01 -8.83769e-01  8.24235e-01
       L -2.64135e+00  1.85602e+00  3.10496e+00
       L -2.10294e+00 -9.85475e-01 -4.10650e-02
6
# CELL(abcABC):  459.05226   459.05226   459.05226    90.00000    90.00000    90.00000  Step:          40  Bead:       0 x_centroid{angstrom}  cell{atomic_unit}
       C -3.79808e-01 -1.12254e-01  3.40876e-02
       O  8.52219e-01  2.57093e-01 -1.41778e-01
       H  2.83768e-01  8.11444e-01 -8.09687e-01
       H -4.47338e-01 -8.86364e-01  8.32865e-01
       L -3.02599e+00  1.57895e+00  3.51748e+00
       L -2.46455e+00 -1.33890e+00  1.11069e-01
6
# CELL(abcABC):  459.05226   459.05226   459.05226    90.00000    90.00000    90.00000  Step:          41  Bead:       0 x_centroid{angstrom}  cell{atomic_unit}
       C -3.86466e-01 -1.16464e-01  3.56990e-02
       O  8.52904e-01  2.59682e-01 -1.43227e-01
       H  3.50519e-01  8.23737e-01 -8.15283e-01
       H -4.45241e-01 -8.89257e-01  8.41965e-01
       L -3.39595e+00  1.32489e+00  3.95085e+00
       L -2.78846e+00 -1.69919e+00  2.35855e-01
6
# CELL(abcABC):  459.05226   459.05226   459.05226    90.00000    90.00000    90.00000  Step:          42  Bead:       0 x_centroid{angstrom}  cell{atomic_unit}
       C -3.93246e-01 -1.21182e-01  3.77982e-02
       O  8.53005e-01  2.62456e-01 -1.45051e-01
       H  4.26598e-01  8.37390e-01 -8.19236e-01
       H -4.41809e-01 -8.90355e-01  8.49601e-01
       L -3.71326e+00  9.84675e-01  4.31083e+00
       L -3.07596e+00 -2.01302e+00  3.51140e-01
6
# CELL(abcABC):  459.05226   459.05226   459.05226    90.00000    90.00000    90.00000  Step:          43  Bead:       0 x_centroid{angstrom}  cell{atomic_unit}
       C -3.99998e-01 -1.26439e-01  4.00175e-02
       O  8.52649e-01  2.65554e-01 -1.47105e-01
       H  5.08066e-01  8.52470e-01 -8.21845e-01
       H -4.36852e-01 -8.91605e-01  8.58168e-01
       L -3.98056e+00  6.25081e-01  4.61826e+00
       L -3.38881e+00 -2.33294e+00  3.98619e-01
6
# CELL(abcABC):  459.05226   459.05226   459.05226    90.00000    90.00000    90.00000  Step:          44  Bead:       0 x_centroid{angstrom}  cell{atomic_unit}
       C -4.06471e-01 -1.31960e-01  4.25185e-02
       O  8.51569e-01  2.68708e-01 -1.49201e-01
       H  5.95448e-01  8.68648e-01 -8.25672e-01
       H -4.29697e-01 -8.91694e-01  8.65298e-01
       L -4.18836e+00  2.59689e-01  4.87887e+00
       L -3.67975e+00 -2.61838e+00  4.55263e-01
6
# CELL(abcABC):  459.05226   459.05226   459.05226    90.00000    90.00000    90.00000  Step:          45  Bead:       0 x_centroid{angstrom}  cell{atomic_unit}
       C -4.12523e-01 -1.37780e-01  4.55799e-02
       O  8.49948e-01  2.71808e-01 -1.51478e-01
       H  6.85131e-01  8.87764e-01 -8.31310e-01
       H -4.21291e-01 -8.90319e-01  8.70460e-01
       L -4.38665e+00 -1.55780e-01  5.09039e+00
       L -3.90838e+00 -2.86623e+00  4.77753e-01
6
# CELL(abcABC):  459.05226   459.05226   459.05226    90.00000    90.00000    90.00000  Step:          46  Bead:       0 x_centroid{angstrom}  cell{atomic_unit}
       C -4.18311e-01 -1.43599e-01  4.90595e-02
       O  8.47931e-01  2.74776e-01 -1.53916e-01
       H  7.76465e-01  9.08779e-01 -8.38793e-01
       H -4.11539e-01 -8.88764e-01  8.75065e-01
       L -4.44579e+00 -5.54616e-01  5.26037e+00
       L -4.03900e+00 -3.08009e+00  5.16230e-01
6
# CELL(abcABC):  459.05226   459.05226   459.05226    90.00000    90.00000    90.00000  Step:          47  Bead:       0 x_centroid{angstrom}  cell{atomic_unit}
       C -4.23844e-01 -1.49536e-01  5.22191e-02
       O  8.45667e-01  2.77647e-01 -1.55840e-01
       H  8.67570e-01  9.31916e-01 -8.48760e-01
       H -4.00746e-01 -8.86420e-01  8.77873e-01
       L -4.44246e+00 -9.40252e-01  5.41010e+00
       L -4.09918e+00 -3.26401e+00  4.57830e-01
6
# CELL(abcABC):  459.05226   459.05226   459.05226    90.00000    90.00000    90.00000  Step:          48  Bead:       0 x_centroid{angstrom}  cell{atomic_unit}
       C -4.29168e-01 -1.55020e-01  5.53041e-02
       O  8.43203e-01  2.80226e-01 -1.57703e-01
       H  9.57402e-01  9.53450e-01 -8.57981e-01
       H -3.88045e-01 -8.83224e-01  8.79867e-01
       L -4.36089e+00 -1.33969e+00  5.57288e+00
       L -4.11730e+00 -3.42924e+00  3.62198e-01
6
# CELL(abcABC):  459.05226   459.05226   459.05226    90.00000    90.00000    90.00000  Step:          49  Bead:       0 x_centroid{angstrom}  cell{atomic_unit}
       C -4.33987e-01 -1.60219e-01  5.78478e-02
       O  8.40395e-01  2.82767e-01 -1.59256e-01
       H  1.04443e+00  9.71618e-01 -8.64844e-01
       H -3.73208e-01 -8.79498e-01  8.81114e-01
       L -4.20383e+00 -1.74436e+00  5.64319e+00
       L -4.06102e+00 -3.53146e+00  2.16202e-01
6
# CELL(abcABC):  459.05226   459.05226   459.05226    90.00000    90.00000    90.00000  Step:          50  Bead:       0 x_centroid{angstrom}  cell{atomic_unit}
       C -4.38345e-01 -1.65038e-01  6.00770e-02
       O  8.37384e-01  2.85332e-01 -1.60797e-01
       H  1.12764e+00  9.85470e-01 -8.66969e-01
       H -3.56828e-01 -8.76452e-01  8.81209e-01
       L -3.99675e+00 -2.09004e+00  5.69465e+00
       L -4.00771e+00 -3.55770e+00  3.37490e-02
6
# CELL(abcABC):  459.05226   459.05226   459.05226    90.00000    90.00000    90.00000  Step:          51  Bead:       0 x_centroid{angstrom}  cell{atomic_unit}
       C -4.42271e-01 -1.69467e-01  6.17767e-02
       O  8.34389e-01  2.87931e-01 -1.62252e-01
       H  1.20449e+00  9.93252e-01 -8.64380e-01
       H -3.39557e-01 -8.72545e-01  8.81580e-01
       L -3.72880e+00 -2.37436e+00  5.69635e+00
       L -3.90590e+00 -3.55542e+00 -1.63773e-01
6
# CELL(abcABC):  459.05226   459.05226   459.05226    90.00000    90.00000    90.00000  Step:          52  Bead:       0 x_centroid{angstrom}  cell{atomic_unit}
       C -4.45708e-01 -1.73310e-01  6.27969e-02
       O  8.31499e-01  2.90368e-01 -1.63589e-01
       H  1.27308e+00  9.94669e-01 -8.55420e-01
       H -3.21532e-01 -8.66761e-01  8.81777e-01
       L -3.46855e+00 -2.60218e+00  5.73397e+00
       L -3.77255e+00 -3.50570e+00 -3.87422e-01
6
# CELL(abcABC):  459.05226   459.05226   459.05226    90.00000    90.00000    90.00000  Step:          53  Bead:       0 x_centroid{angstrom}  cell{atomic_unit}
       C -4.48876e-01 -1.76476e-01  6.34604e-02
       O  8.28827e-01  2.92729e-01 -1.65024e-01
       H  1.33302e+00  9.89597e-01 -8.40862e-01
       H -3.01591e-01 -8.61372e-01  8.82242e-01
       L -3.14940e+00 -2.83187e+00  5.73126e+00
       L -3.57527e+00 -3.39680e+00 -6.47951e-01
6
# CELL(abcABC):  459.05226   459.05226   459.05226    90.00000    90.00000    90.00000  Step:          54  Bead:       0 x_centroid{angstrom}  cell{atomic_unit}
       C -4.51795e-01 -1.79023e-01  6.36736e-02
       O  8.26454e-01  2.95175e-01 -1.66495e-01
       H  1.38227e+00  9.77194e-01 -8.20627e-01
       H -2.78727e-01 -8.57416e-01  8.82980e-01
       L -2.78493e+00 -3.02074e+00  5.69738e+00
       L -3.31946e+00 -3.26439e+00 -9.14419e-01
6
# CELL(abcABC):  459.05226   459.05226   459.05226    90.00000    90.00000    90.00000  Step:          55  Bead:       0 x_centroid{angstrom}  cell{atomic_unit}
       C -4.53964e-01 -1.80927e-01  6.32698e-02
       O  8.24255e-01  2.97606e-01 -1.67872e-01
       H  1.41980e+00  9.58206e-01 -7.94494e-01
       H -2.55843e-01 -8.54363e-01  8.83732e-01
       L -2.39677e+00 -3.15333e+00  5.59392e+00
       L -3.07979e+00 -3.07507e+00 -1.21090e+00
6
# CELL(abcABC):  459.05226   459.05226   459.05226    90.00000    90.00000    90.00000  Step:          56  Bead:       0 x_centroid{angstrom}  cell{atomic_unit}
       C -4.55778e-01 -1.82548e-01  6.22216e-02
       O  8.22478e-01  3.00240e-01 -1.69107e-01
       H  1.44491e+00  9.33359e-01 -7.63574e-01
       H -2.31482e-01 -8.52052e-01  8.85102e-01
       L -2.00378e+00 -3.23724e+00  5.43240e+00
       L -2.84579e+00 -2.90936e+00 -1.42144e+00
6
# CELL(abcABC):  459.05226   459.05226   459.05226    90.00000    90.00000    90.00000  Step:          57  Bead:       0 x_centroid{angstrom}  cell{atomic_unit}
       C -4.56982e-01 -1.83475e-01  6.05630e-02
       O  8.20843e-01  3.02805e-01 -1.70300e-01
       H  1.45883e+00  9.02548e-01 -7.27940e-01
       H -2.05489e-01 -8.50987e-01  8.88385e-01
       L -1.57633e+00 -3.30199e+00  5.23774e+00
       L -2.55626e+00 -2.71746e+00 -1.60799e+00
6
# CELL(abcABC):  459.05226   459.05226   459.05226    90.00000    90.00000    90.00000  Step:          58  Bead:       0 x_centroid{angstrom}  cell{atomic_unit}
       C -4.57609e-01 -1.84103e-01  5.84382e-02
       O  8.19282e-01  3.05367e-01 -1.71274e-01
       H  1.46371e+00  8.67373e-01 -6.89709e-01
       H -1.78557e-01 -8.49046e-01  8.91112e-01
       L -1.10050e+00 -3.39405e+00  5.06477e+00
       L -2.23308e+00 -2.52163e+00 -1.76670e+00
6
# CELL(abcABC):  459.05226   459.05226   459.05226    90.00000    90.00000    90.00000  Step:          59  Bead:       0 x_centroid{angstrom}  cell{atomic_unit}
       C -4.57736e-01 -1.84189e-01  5.57168e-02
       O  8.17853e-01  3.07604e-01 -1.71697e-01
       H  1.46239e+00  8.30060e-01 -6.53475e-01
       H -1.53480e-01 -8.46277e-01  8.94218e-01
       L -5.81084e-01 -3.47230e+00  4.85259e+00
       L -1.92529e+00 -2.32591e+00 -1.90763e+00
6
# CELL(abcABC):  459.05226   459.05226   459.05226    90.00000    90.00000    90.00000  Step:          60  Bead:       0 x_centroid{angstrom}  cell{atomic_unit}
       C -4.56909e-01 -1.84024e-01  5.25832e-02
       O  8.16228e-01  3.09453e-01 -1.71554e-01
       H  1.45572e+00  7.93707e-01 -6.19820e-01
       H -1.31349e-01 -8.41305e-01  8.95812e-01
       L -3.65212e-02 -3.53365e+00  4.60809e+00
       L -1.59413e+00 -2.14637e+00 -2.00068e+00
6
# CELL(abcABC):  459.05226   459.05226   459.05226    90.00000    90.00000    90.00000  Step:          61  Bead:       0 x_centroid{angstrom}  cell{atomic_unit}
       C -4.55336e-01 -1.83552e-01  4.92842e-02
       O  8.14233e-01  3.10829e-01 -1.70860e-01
       H  1.44878e+00  7.61211e-01 -5.91351e-01
       H -1.11940e-01 -8.36356e-01  8.95892e-01
       L  4.95006e-01 -3.58059e+00  4.24052e+00
       L -1.30096e+00 -1.94780e+00 -2.11858e+00
6
# CELL(abcABC):  459.05226   459.05226   459.05226    90.00000    90.00000    90.00000  Step:          62  Bead:       0 x_centroid{angstrom}  cell{atomic_unit}
       C -4.52975e-01 -1.82987e-01  4.58719e-02
       O  8.11641e-01  3.11653e-01 -1.69497e-01
       H  1.44532e+00  7.36523e-01 -5.70892e-01
       H -9.59438e-02 -8.31571e-01  8.94758e-01
       L  1.05058e+00 -3.61901e+00  3.85570e+00
       L -9.90770e-01 -1.75527e+00 -2.28487e+00
6
# CELL(abcABC):  459.05226   459.05226   459.05226    90.00000    90.00000    90.00000  Step:          63  Bead:       0 x_centroid{angstrom}  cell{atomic_unit}
       C -4.49696e-01 -1.82236e-01  4.26952e-02
       O  8.08121e-01  3.11671e-01 -1.67514e-01
       H  1.44929e+00  7.22867e-01 -5.62756e-01
       H -8.36047e-02 -8.27281e-01  8.93258e-01
       L  1.61024e+00 -3.57554e+00  3.51251e+00
       L -6.40336e-01 -1.55777e+00 -2.41421e+00
6
# CELL(abcABC):  459.05226   459.05226   459.05226    90.00000    90.00000    90.00000  Step:          64  Bead:       0 x_centroid{angstrom}  cell{atomic_unit}
       C -4.45635e-01 -1.81366e-01  3.96248e-02
       O  8.03757e-01  3.10980e-01 -1.64825e-01
       H  1.46211e+00  7.18716e-01 -5.64700e-01
       H -7.60403e-02 -8.22675e-01  8.89369e-01
       L  2.15125e+00 -3.48007e+00  3.15402e+00
       L -2.68274e-01 -1.39084e+00 -2.53181e+00
6
# CELL(abcABC):  459.05226   459.05226   459.05226    90.00000    90.00000    90.00000  Step:          65  Bead:       0 x_centroid{angstrom}  cell{atomic_unit}
       C -4.40713e-01 -1.80467e-01  3.63917e-02
       O  7.98628e-01  3.09800e-01 -1.61385e-01
       H  1.48072e+00  7.21958e-01 -5.76554e-01
       H -7.23900e-02 -8.18059e-01  8.85391e-01
       L  2.67343e+00 -3.31917e+00  2.81381e+00
       L  1.31675e-01 -1.24904e+00 -2.63477e+00
6
# CELL(abcABC):  459.05226   459.05226   459.05226    90.00000    90.00000    90.00000  Step:          66  Bead:       0 x_centroid{angstrom}  cell{atomic_unit}
       C -4.35310e-01 -1.79657e-01  3.32632e-02