6
# CELL(abcABC):  459.05226   459.05226   459.05226    90.00000    90.00000    90.00000  Step:           0  Bead:       0 x_centroid{angstrom}  cell{atomic_unit}
       C -3.39887e-01 -1.13437e-01  8.06659e-02
       O  8.43483e-01  2.62672e-01 -1.81512e-01
       H -7.35799e-02  8.16467e-01 -6.61432e-01
       H -4.30016e-01 -9.65701e-01  7.62278e-01
       L  0.00000e+00  0.00000e+00  0.00000e+00
       L  0.00000e+00  0.00000e+00  0.00000e+00
6
# CELL(abcABC):  459.05226   459.05226   459.05226    90.00000    90.00000    90.00000  Step:           1  Bead:       0 x_centroid{angstrom}  cell{atomic_unit}
       C -3.40094e-01 -1.10834e-01  8.19844e-02
       O  8.42812e-01  2.59789e-01 -1.83211e-01
       H -6.91060e-02  8.10370e-01 -6.49608e-01
       H -4.21379e-01 -9.44899e-01  7.61686e-01
       L  2.60022e-01 -3.64780e-01 -8.39723e-02
       L -2.39896e-01  4.11988e-01  1.30799e-01
6
# CELL(abcABC):  459.05226   459.05226   459.05226    90.00000    90.00000    90.00000  Step:           2  Bead:       0 x_centroid{angstrom}  cell{atomic_unit}
       C -3.40506e-01 -1.08243e-01  8.32588e-02
       O  8.42346e-01  2.56958e-01 -1.84817e-01
       H -6.48127e-02  8.04840e-01 -6.39529e-01
       H -4.13393e-01 -9.25362e-01  7.61869e-01
       L  5.31807e-01 -7.10172e-01 -1.63022e-01
       L -4.62330e-01  8.74707e-01  2.75334e-01
6
# CELL(abcABC):  459.05226   459.05226   459.05226    90.00000    90.00000    90.00000  Step:           3  Bead:       0 x_centroid{angstrom}  cell{atomic_unit}
       C -3.40951e-01 -1.05529e-01  8.43129e-02
       O  8.41794e-01  2.54174e-01 -1.86313e-01
       H -5.80664e-02  8.00346e-01 -6.30222e-01
       H -4.06070e-01 -9.09100e-01  7.63652e-01
       L  7.93685e-01 -1.03665e+00 -1.88502e-01
       L -7.27735e-01  1.36078e+00  4.74171e-01
6
# CELL(abcABC):  459.05226   459.05226   459.05226    90.00000    90.00000    90.00000  Step:           4  Bead:       0 x_centroid{angstrom}  cell{atomic_unit}
       C -3.41473e-01 -1.02696e-01  8.52151e-02
       O  8.41405e-01  2.51339e-01 -1.87826e-01
       H -5.22165e-02  7.97792e-01 -6.22652e-01
       H -3.99540e-01 -8.95379e-01  7.69306e-01
       L  1.03113e+00 -1.38660e+00 -2.72821e-01
       L -9.46702e-01  1.83915e+00  6.42564e-01
6
# CELL(abcABC):  459.05226   459.05226   459.05226    90.00000    90.00000    90.00000  Step:           5  Bead:       0 x_centroid{angstrom}  cell{atomic_unit}
       C -3.42222e-01 -9.98923e-02  8.62149e-02
       O  8.41355e-01  2.48435e-01 -1.89507e-01
       H -4.70385e-02  7.98362e-01 -6.17354e-01
       H -3.95024e-01 -8.83357e-01  7.78724e-01
       L  1.20884e+00 -1.71864e+00 -3.73864e-01
       L -1.09975e+00  2.33792e+00  8.40815e-01
6
# CELL(abcABC):  459.05226   459.05226   459.05226    90.00000    90.00000    90.00000  Step:           6  Bead:       0 x_centroid{angstrom}  cell{atomic_unit}
       C -3.43150e-01 -9.70401e-02  8.71107e-02
       O  8.41507e-01  2.45567e-01 -1.91146e-01
       H -4.17633e-02  8.01761e-01 -6.14273e-01
       H -3.91669e-01 -8.75329e-01  7.90984e-01
       L  1.40097e+00 -2.00816e+00 -5.00738e-01
       L -1.23591e+00  2.83898e+00  9.65273e-01
6
# CELL(abcABC):  459.05226   459.05226   459.05226    90.00000    90.00000    90.00000  Step:           7  Bead:       0 x_centroid{angstrom}  cell{atomic_unit}
       C -3.43988e-01 -9.41170e-02  8.77017e-02
       O  8.41704e-01  2.42718e-01 -1.92543e-01
       H -3.64384e-02  8.07344e-01 -6.13640e-01
       H -3.90160e-01 -8.70658e-01  8.05475e-01
       L  1.57975e+00 -2.27505e+00 -6.26815e-01
       L -1.36306e+00  3.36096e+00  1.10091e+00
6
# CELL(abcABC):  459.05226   459.05226   459.05226    90.00000    90.00000    90.00000  Step:           8  Bead:       0 x_centroid{angstrom}  cell{atomic_unit}
       C -3.45398e-01 -9.13287e-02  8.85388e-02
       O  8.42303e-01  2.40122e-01 -1.94187e-01
       H -2.91180e-02  8.14895e-01 -6.14615e-01
       H -3.90213e-01 -8.70324e-01  8.22566e-01
       L  1.72004e+00 -2.52998e+00 -7.28739e-01
       L -1.46766e+00  3.79046e+00  1.23134e+00
6
# CELL(abcABC):  459.05226   459.05226   459.05226    90.00000    90.00000    90.00000  Step:           9  Bead:       0 x_centroid{angstrom}  cell{atomic_unit}
       C -3.46796e-01 -8.84928e-02  8.93598e-02
       O  8.42893e-01  2.37510e-01 -1.95795e-01
       H -2.07056e-02  8.24453e-01 -6.16880e-01
       H -3.91377e-01 -8.72324e-01  8.40518e-01
       L  1.88301e+00 -2.71676e+00 -7.59340e-01
       L -1.56506e+00  4.18437e+00  1.34220e+00
6
# CELL(abcABC):  459.05226   459.05226   459.05226    90.00000    90.00000    90.00000  Step:          10  Bead:       0 x_centroid{angstrom}  cell{atomic_unit}
       C -3.48644e-01 -8.57938e-02  9.03544e-02
       O  8.43744e-01  2.34963e-01 -1.97463e-01
       H -1.11165e-02  8.35893e-01 -6.20030e-01
       H -3.92484e-01 -8.75599e-01  8.58296e-01
       L  2.03164e+00 -2.86782e+00 -8.06829e-01
       L -1.64378e+00  4.52316e+00  1.40667e+00
6
# CELL(abcABC):  459.05226   459.05226   459.05226    90.00000    90.00000    90.00000  Step:          11  Bead:       0 x_centroid{angstrom}  cell{atomic_unit}
       C -3.50541e-01 -8.35899e-02  9.17340e-02
       O  8.44613e-01  2.32695e-01 -1.99254e-01
       H  2.65047e-04  8.48954e-01 -6.24102e-01
       H -3.95061e-01 -8.79013e-01  8.74353e-01
       L  2.11059e+00 -2.97888e+00 -8.47568e-01
       L -1.70423e+00  4.79243e+00  1.45149e+00
6
# CELL(abcABC):  459.05226   459.05226   459.05226    90.00000    90.00000    90.00000  Step:          12  Bead:       0 x_centroid{angstrom}  cell{atomic_unit}
       C -3.52368e-01 -8.15655e-02  9.33266e-02
       O  8.45255e-01  2.30471e-01 -2.01177e-01
       H  1.53416e-02  8.62958e-01 -6.28169e-01
       H -3.98582e-01 -8.81921e-01  8.89982e-01
       L  2.17248e+00 -3.06607e+00 -8.81891e-01
       L -1.71623e+00  5.04339e+00  1.45161e+00
6
# CELL(abcABC):  459.05226   459.05226   459.05226    90.00000    90.00000    90.00000  Step:          13  Bead:       0 x_centroid{angstrom}  cell{atomic_unit}
       C -3.54554e-01 -8.02329e-02  9.55384e-02
       O  8.46015e-01  2.28600e-01 -2.03351e-01
       H  3.45048e-02  8.78233e-01 -6.33430e-01
       H -4.03828e-01 -8.83467e-01  9.03442e-01
       L  2.24901e+00 -3.09830e+00 -9.36270e-01
       L -1.69755e+00  5.24795e+00  1.43149e+00
6
# CELL(abcABC):  459.05226   459.05226   459.05226    90.00000    90.00000    90.00000  Step:          14  Bead:       0 x_centroid{angstrom}  cell{atomic_unit}
       C -3.57239e-01 -7.93616e-02  9.82668e-02
       O  8.46714e-01  2.26990e-01 -2.05700e-01
       H  5.99886e-02  8.92450e-01 -6.38699e-01
       H -4.08426e-01 -8.82584e-01  9.13522e-01
       L  2.31854e+00 -3.13563e+00 -9.44701e-01
       L -1.70465e+00  5.40209e+00  1.37063e+00
6
# CELL(abcABC):  459.05226   459.05226   459.05226    90.00000    90.00000    90.00000  Step:          15  Bead:       0 x_centroid{angstrom}  cell{atomic_unit}
       C -3.60378e-01 -7.91387e-02  1.01311e-01
       O  8.47215e-01  2.25787e-01 -2.08092e-01
       H  9.30622e-02  9.06438e-01 -6.45416e-01
       H -4.12059e-01 -8.80241e-01  9.21977e-01
       L  2.33165e+00 -3.09416e+00 -9.74654e-01
       L -1.70759e+00  5.55662e+00  1.30455e+00
6
# CELL(abcABC):  459.05226   459.05226   459.05226    90.00000    90.00000    90.00000  Step:          16  Bead:       0 x_centroid{angstrom}  cell{atomic_unit}
       C -3.63829e-01 -7.95188e-02  1.05013e-01
       O  8.47408e-01  2.25002e-01 -2.10867e-01
       H  1.34383e-01  9.18662e-01 -6.52636e-01
       H -4.15316e-01 -8.75551e-01  9.29174e-01
       L  2.28582e+00 -3.02423e+00 -9.47038e-01
       L -1.66574e+00  5.64054e+00  1.19313e+00
6
# CELL(abcABC):  459.05226   459.05226   459.05226    90.00000    90.00000    90.00000  Step:          17  Bead:       0 x_centroid{angstrom}  cell{atomic_unit}
       C -3.67806e-01 -8.05117e-02  1.09618e-01
       O  8.47358e-01  2.24697e-01 -2.14112e-01
       H  1.83344e-01  9.28859e-01 -6.59317e-01
       H -4.16148e-01 -8.69127e-01  9.32489e-01
       L  2.31269e+00 -2.93145e+00 -8.50823e-01
       L -1.60518e+00  5.63747e+00  1.12767e+00
6
# CELL(abcABC):  459.05226   459.05226   459.05226    90.00000    90.00000    90.00000  Step:          18  Bead:       0 x_centroid{angstrom}  cell{atomic_unit}
       C -3.71867e-01 -8.18802e-02  1.14589e-01
       O  8.46569e-01  2.24713e-01 -2.17527e-01
       H  2.43073e-01  9.37221e-01 -6.66054e-01
       H -4.14997e-01 -8.61458e-01  9.34147e-01
       L  2.32546e+00 -2.80128e+00 -7.37342e-01
       L -1.54971e+00  5.54962e+00  1.08016e+00
6
# CELL(abcABC):  459.05226   459.05226   459.05226    90.00000    90.00000    90.00000  Step:          19  Bead:       0 x_centroid{angstrom}  cell{atomic_unit}
       C -3.76250e-01 -8.40334e-02  1.19854e-01
       O  8.45298e-01  2.25265e-01 -2.20968e-01
       H  3.11321e-01  9.44423e-01 -6.73823e-01
       H -4.10868e-01 -8.51764e-01  9.33770e-01
       L  2.35567e+00 -2.64366e+00 -6.46294e-01
       L -1.52102e+00  5.40672e+00  1.04981e+00
6
# CELL(abcABC):  459.05226   459.05226   459.05226    90.00000    90.00000    90.00000  Step:          20  Bead:       0 x_centroid{angstrom}  cell{atomic_unit}
       C -3.80911e-01 -8.64199e-02  1.25579e-01
       O  8.43656e-01  2.26015e-01 -2.24624e-01
       H  3.87814e-01  9.50618e-01 -6.83383e-01
       H -4.05758e-01 -8.41467e-01  9.33122e-01
       L  2.33108e+00 -2.40228e+00 -5.57258e-01
       L -1.49013e+00  5.21664e+00  1.00774e+00
6
# CELL(abcABC):  459.05226   459.05226   459.05226    90.00000    90.00000    90.00000  Step:          21  Bead:       0 x_centroid{angstrom}  cell{atomic_unit}
       C -3.85856e-01 -8.89116e-02  1.31525e-01
       O  8.41661e-01  2.26828e-01 -2.28240e-01
       H  4.71492e-01  9.58585e-01 -6.94640e-01
       H -3.98888e-01 -8.32647e-01  9.30895e-01
       L  2.30749e+00 -2.13456e+00 -4.82179e-01
       L -1.39150e+00  4.96482e+00  9.70659e-01
6
# CELL(abcABC):  459.05226   459.05226   459.05226    90.00000    90.00000    90.00000  Step:          22  Bead:       0 x_centroid{angstrom}  cell{atomic_unit}
       C -3.90718e-01 -9.16235e-02  1.37202e-01
       O  8.39174e-01  2.27908e-01 -2.31442e-01
       H  5.59381e-01  9.67819e-01 -7.09086e-01
       H -3.89409e-01 -8.26729e-01  9.28533e-01
       L  2.28182e+00 -1.83353e+00 -4.24893e-01
       L -1.27127e+00  4.69576e+00  9.00577e-01
6
# CELL(abcABC):  459.05226   459.05226   459.05226    90.00000    90.00000    90.00000  Step:          23  Bead:       0 x_centroid{angstrom}  cell{atomic_unit}
       C -3.95673e-01 -9.40310e-02  1.42643e-01
       O  8.36527e-01  2.28707e-01 -2.34299e-01
       H  6.50078e-01  9.79765e-01 -7.26502e-01
       H -3.79062e-01 -8.22709e-01  9.26461e-01
       L  2.22123e+00 -1.48708e+00 -3.18293e-01
       L -1.19927e+00  4.40838e+00  8.03187e-01
6
# CELL(abcABC):  459.05226   459.05226   459.05226    90.00000    90.00000    90.00000  Step:          24  Bead:       0 x_centroid{angstrom}  cell{atomic_unit}
       C -4.00719e-01 -9.56667e-02  1.47892e-01
       O  8.33850e-01  2.28935e-01 -2.36807e-01
       H  7.41005e-01  9.95500e-01 -7.47863e-01
       H -3.67402e-01 -8.22602e-01  9.25037e-01
       L  2.16725e+00 -1.12901e+00 -1.75535e-01
       L -1.09639e+00  4.11885e+00  7.37264e-01
6
# CELL(abcABC):  459.05226   459.05226   459.05226    90.00000    90.00000    90.00000  Step:          25  Bead:       0 x_centroid{angstrom}  cell{atomic_unit}
       C -4.05675e-01 -9.72517e-02  1.52945e-01
       O  8.31054e-01  2.29066e-01 -2.39083e-01
       H  8.31225e-01  1.01489e+00 -7.72892e-01
       H -3.54165e-01 -8.25204e-01  9.25951e-01
       L  2.09613e+00 -8.01892e-01 -8.41500e-03
       L -1.03746e+00  3.82996e+00  6.40004e-01
6
# CELL(abcABC):  459.05226   459.05226   459.05226    90.00000    90.00000    90.00000  Step:          26  Bead:       0 x_centroid{angstrom}  cell{atomic_unit}
       C -4.10381e-01 -9.85530e-02  1.57624e-01
       O  8.28091e-01  2.29136e-01 -2.40958e-01
       H  9.20358e-01  1.03375e+00 -7.98724e-01
       H -3.40178e-01 -8.29665e-01  9.25757e-01
       L  1.99166e+00 -5.05450e-01  1.74987e-01
       L -9.53218e-01  3.53226e+00  5.16359e-01
6
# CELL(abcABC):  459.05226   459.05226   459.05226    90.00000    90.00000    90.00000  Step:          27  Bead:       0 x_centroid{angstrom}  cell{atomic_unit}
       C -4.14785e-01 -9.93928e-02  1.61662e-01
       O  8.24973e-01  2.29285e-01 -2.42467e-01
       H  1.00694e+00  1.04730e+00 -8.22727e-01
       H -3.24748e-01 -8.35542e-01  9.25598e-01
       L  1.88181e+00 -1.80760e-01  2.99204e-01
       L -9.12080e-01  3.13895e+00  3.69261e-01
6
# CELL(abcABC):  459.05226   459.05226   459.05226    90.00000    90.00000    90.00000  Step:          28  Bead:       0 x_centroid{angstrom}  cell{atomic_unit}
       C -4.18992e-01 -9.99659e-02  1.65257e-01
       O  8.21718e-01  2.29720e-01 -2.44113e-01
       H  1.08977e+00  1.05518e+00 -8.42180e-01
       H -3.05696e-01 -8.43448e-01  9.28370e-01
       L  1.73912e+00  9.93646e-02  4.54577e-01
       L -9.20669e-01  2.76787e+00  1.97599e-01
6
# CELL(abcABC):  459.05226   459.05226   459.05226    90.00000    90.00000    90.00000  Step:          29  Bead:       0 x_centroid{angstrom}  cell{atomic_unit}
       C -4.23235e-01 -9.96155e-02  1.68513e-01
       O  8.18677e-01  2.30119e-01 -2.45795e-01
       H  1.16586e+00  1.05581e+00 -8.57066e-01
       H -2.82879e-01 -8.54463e-01  9.31150e-01
       L  1.58847e+00  3.35319e-01  5.98293e-01
       L -9.25686e-01  2.30902e+00  4.17757e-02
6
# CELL(abcABC):  459.05226   459.05226   459.05226    90.00000    90.00000    90.00000  Step:          30  Bead:       0 x_centroid{angstrom}  cell{atomic_unit}
       C -4.27469e-01 -9.86908e-02  1.71751e-01
       O  8.16026e-01  2.30738e-01 -2.47823e-01
       H  1.23386e+00  1.04720e+00 -8.65389e-01
       H -2.58280e-01 -8.66583e-01  9.33125e-01
       L  1.40533e+00  5.45208e-01  7.23583e-01
       L -8.63014e-01  1.87346e+00 -1.51783e-01
6
# CELL(abcABC):  459.05226   459.05226   459.05226    90.00000    90.00000    90.00000  Step:          31  Bead:       0 x_centroid{angstrom}  cell{atomic_unit}
       C -4.31668e-01 -9.71803e-02  1.74860e-01
       O  8.13864e-01  2.31401e-01 -2.50043e-01
       H  1.29172e+00  1.03128e+00 -8.68152e-01
       H -2.31752e-01 -8.79025e-01  9.34136e-01
       L  1.24280e+00  6.86497e-01  8.18459e-01
       L -7.44272e-01  1.44341e+00 -3.65685e-01
6
# CELL(abcABC):  459.05226   459.05226   459.05226    90.00000    90.00000    90.00000  Step:          32  Bead:       0 x_centroid{angstrom}  cell{atomic_unit}
       C -4.35307e-01 -9.50138e-02  1.77376e-01
       O  8.11971e-01  2.32071e-01 -2.52082e-01
       H  1.33882e+00  1.00640e+00 -8.65176e-01
       H -2.05431e-01 -8.90455e-01  9.33673e-01
       L  1.06066e+00  8.23108e-01  8.13973e-01
       L -5.96802e-01  1.05764e+00 -5.92832e-01
6
# CELL(abcABC):  459.05226   459.05226   459.05226    90.00000    90.00000    90.00000  Step:          33  Bead:       0 x_centroid{angstrom}  cell{atomic_unit}
       C -4.38601e-01 -9.23926e-02  1.79314e-01
       O  8.10330e-01  2.32875e-01 -2.53930e-01
       H  1.37581e+00  9.73564e-01 -8.55823e-01
       H -1.77126e-01 -9.01466e-01  9.30631e-01
       L  9.17621e-01  8.99532e-01  8.33530e-01
       L -4.46995e-01  6.84842e-01 -7.51486e-01
6
# CELL(abcABC):  459.05226   459.05226   459.05226    90.00000    90.00000    90.00000  Step:          34  Bead:       0 x_centroid{angstrom}  cell{atomic_unit}
       C -4.41196e-01 -8.95175e-02  1.81392e-01
       O  8.08973e-01  2.33803e-01 -2.56169e-01
       H  1.40165e+00  9.33221e-01 -8.39396e-01
       H -1.50515e-01 -9.09938e-01  9.25089e-01
       L  7.88991e-01  9.62406e-01  8.45761e-01
       L -2.82072e-01  3.04553e-01 -9.70140e-01
6
# CELL(abcABC):  459.05226   459.05226   459.05226    90.00000    90.00000    90.00000  Step:          35  Bead:       0 x_centroid{angstrom}  cell{atomic_unit}
       C -4.43168e-01 -8.65711e-02  1.83332e-01
       O  8.07952e-01  2.34830e-01 -2.58403e-01
       H  1.41590e+00  8.87875e-01 -8.18616e-01
       H -1.25083e-01 -9.15821e-01  9.16774e-01
       L  6.69930e-01  1.05795e+00  8.78913e-01
       L -1.54519e-01 -1.06175e-01 -1.21324e+00
6
# CELL(abcABC):  459.05226   459.05226   459.05226    90.00000    90.00000    90.00000  Step:          36  Bead:       0 x_centroid{angstrom}  cell{atomic_unit}
       C -4.44596e-01 -8.34430e-02  1.84808e-01
       O  8.07430e-01  2.35878e-01 -2.60446e-01
       H  1.41901e+00  8.37952e-01 -7.93041e-01
       H -1.02908e-01 -9.19613e-01  9.06167e-01
       L  5.60163e-01  1.14744e+00  9.06096e-01
       L -5.27073e-03 -5.60312e-01 -1.45856e+00
6
# CELL(abcABC):  459.05226   459.05226   459.05226    90.00000    90.00000    90.00000  Step:          37  Bead:       0 x_centroid{angstrom}  cell{atomic_unit}
       C -4.45549e-01 -8.01617e-02  1.86260e-01
       O  8.07267e-01  2.36796e-01 -2.62434e-01
       H  1.41277e+00  7.86282e-01 -7.64955e-01
       H -8.27137e-02 -9.21403e-01  8.92445e-01
       L  4.30606e-01  1.20159e+00  9.28659e-01
       L  1.33311e-01 -1.00531e+00 -1.69569e+00
6
# CELL(abcABC):  459.05226   459.05226   459.05226    90.00000    90.00000    90.00000  Step:          38  Bead:       0 x_centroid{angstrom}  cell{atomic_unit}
       C -4.45762e-01 -7.67455e-02  1.87763e-01
       O  8.07031e-01  2.37395e-01 -2.64405e-01
       H  1.40179e+00  7.34843e-01 -7.35989e-01
       H -6.54504e-02 -9.19964e-01  8.76966e-01
       L  3.06092e-01  1.25543e+00  9.14601e-01
       L  2.43392e-01 -1.46900e+00 -1.88306e+00
6
# CELL(abcABC):  459.05226   459.05226   459.05226    90.00000    90.00000    90.00000  Step:          39  Bead:       0 x_centroid{angstrom}  cell{atomic_unit}
       C -4.44980e-01 -7.33351e-02  1.89055e-01
       O  8.06272e-01  2.37359e-01 -2.65753e-01
       H  1.39143e+00  6.90068e-01 -7.12501e-01
       H -5.23428e-02 -9.15064e-01  8.59570e-01
       L  1.57964e-01  1.34162e+00  8.92760e-01
       L  3.64994e-01 -1.89990e+00 -2.01124e+00
6
# CELL(abcABC):  459.05226   459.05226   459.05226    90.00000    90.00000    90.00000  Step:          40  Bead:       0 x_centroid{angstrom}  cell{atomic_unit}
       C -4.43406e-01 -6.96367e-02  1.90182e-01
       O  8.04712e-01  2.36308e-01 -2.66436e-01
       H  1.38825e+00  6.55874e-01 -6.97590e-01
       H -4.31110e-02 -9.08095e-01  8.42158e-01
       L -3.65880e-02  1.44754e+00  8.48006e-01
       L  4.69442e-01 -2.30667e+00 -2.13208e+00
6
# CELL(abcABC):  459.05226   459.05226   459.05226    90.00000    90.00000    90.00000  Step:          41  Bead:       0 x_centroid{angstrom}  cell{atomic_unit}
       C -4.41074e-01 -6.58181e-02  1.91357e-01
       O  8.02068e-01  2.34194e-01 -2.66170e-01
       H  1.39741e+00  6.36563e-01 -6.96368e-01
       H -3.80416e-02 -9.00589e-01  8.22777e-01
       L -2.52502e-01  1.56607e+00  8.44241e-01
       L  6.03978e-01 -2.68124e+00 -2.24284e+00
6
# CELL(abcABC):  459.05226   459.05226   459.05226    90.00000    90.00000    90.00000  Step:          42  Bead:       0 x_centroid{angstrom}  cell{atomic_unit}
       C -4.38328e-01 -6.19478e-02  1.92563e-01
       O  7.98616e-01  2.31033e-01 -2.65136e-01
       H  1.41871e+00  6.32164e-01 -7.07974e-01
       H -3.72092e-02 -8.91989e-01  8.03670e-01
       L -4.83773e-01  1.69026e+00  8.30204e-01
       L  7.19107e-01 -3.06633e+00 -2.36116e+00
6
# CELL(abcABC):  459.05226   459.05226   459.05226    90.00000    90.00000    90.00000  Step:          43  Bead:       0 x_centroid{angstrom}  cell{atomic_unit}
       C -4.35174e-01 -5.79241e-02  1.93807e-01
       O  7.94673e-01  2.27095e-01 -2.63538e-01
       H  1.44686e+00  6.38651e-01 -7.29171e-01
       H -4.03052e-02 -8.83794e-01  7.84758e-01
       L -6.49112e-01  1.79588e+00  7.74018e-01
       L  8.08058e-01 -3.40179e+00 -2.46288e+00
6
# CELL(abcABC):  459.05226   459.05226   459.05226    90.00000    90.00000    90.00000  Step:          44  Bead:       0 x_centroid{angstrom}  cell{atomic_unit}
       C -4.31647e-01 -5.37206e-02  1.94518e-01
       O  7.90522e-01  2.22727e-01 -2.61362e-01
       H  1.47735e+00  6.51237e-01 -7.55674e-01
       H -4.69031e-02 -8.77056e-01  7.68308e-01
       L -8.12294e-01  1.95704e+00  7.12965e-01
       L  8.90202e-01 -3.70591e+00 -2.52771e+00
6
# CELL(abcABC):  459.05226   459.05226   459.05226    90.00000    90.00000    90.00000  Step:          45  Bead:       0 x_centroid{angstrom}  cell{atomic_unit}
       C -4.27832e-01 -4.93748e-02  1.95047e-01
       O  7.86564e-01  2.18330e-01 -2.59124e-01
       H  1.50395e+00  6.65595e-01 -7.84293e-01
       H -5.60173e-02 -8.73265e-01  7.55203e-01
       L -1.00940e+00  2.03367e+00  5.94455e-01
       L  8.99365e-01 -4.03380e+00 -2.58364e+00
6
# CELL(abcABC):  459.05226   459.05226   459.05226    90.00000    90.00000    90.00000  Step:          46  Bead:       0 x_centroid{angstrom}  cell{atomic_unit}
       C -4.23817e-01 -4.50534e-02  1.95251e-01
       O  7.83032e-01  2.14176e-01 -2.57065e-01
       H  1.52276e+00  6.79437e-01 -8.10431e-01
       H -6.64984e-02 -8.72538e-01  7.46329e-01
       L -1.17668e+00  2.09255e+00  4.61223e-01
       L  8.33446e-01 -4.31981e+00 -2.61583e+00
6
# CELL(abcABC):  459.05226   459.05226   459.05226    90.00000    90.00000    90.00000  Step:          47  Bead:       0 x_centroid{angstrom}  cell{atomic_unit}
       C -4.19879e-01 -4.04467e-02  1.95094e-01
       O  7.80284e-01  2.10237e-01 -2.55270e-01
       H  1.53139e+00  6.92169e-01 -8.30885e-01
       H -7.83257e-02 -8.77502e-01  7.40241e-01
       L -1.29063e+00  2.14390e+00  2.62397e-01
       L  7.56028e-01 -4.62811e+00 -2.59723e+00
6
# CELL(abcABC):  459.05226   459.05226   459.05226    90.00000    90.00000    90.00000  Step:          48  Bead:       0 x_centroid{angstrom}  cell{atomic_unit}
       C -4.15886e-01 -3.57109e-02  1.94798e-01
       O  7.78280e-01  2.06527e-01 -2.53875e-01
       H  1.52857e+00  7.03047e-01 -8.47194e-01
       H -9.11896e-02 -8.85707e-01  7.37996e-01
       L -1.39980e+00  2.10217e+00  6.48768e-02
       L  7.11848e-01 -4.96404e+00 -2.49339e+00
6
# CELL(abcABC):  459.05226   459.05226   459.05226    90.00000    90.00000    90.00000  Step:          49  Bead:       0 x_centroid{angstrom}  cell{atomic_unit}
       C -4.11655e-01 -3.05856e-02  1.94098e-01
       O  7.76990e-01  2.02927e-01 -2.52842e-01
       H  1.51440e+00  7.11604e-01 -8.56168e-01
       H -1.06870e-01 -8.97998e-01  7.38975e-01
       L -1.49783e+00  2.06241e+00 -1.60622e-01
       L  6.58396e-01 -5.28302e+00 -2.38862e+00
6
# CELL(abcABC):  459.05226   459.05226   459.05226    90.00000    90.00000    90.00000  Step:          50  Bead:       0 x_centroid{angstrom}  cell{atomic_unit}
       C -4.07801e-01 -2.49932e-02  1.93297e-01
       O  7.76856e-01  1.99432e-01 -2.52311e-01
       H  1.48933e+00  7.17556e-01 -8.59008e-01
       H -1.25536e-01 -9.14998e-01  7.42974e-01
       L -1.57911e+00  2.05772e+00 -3.73503e-01
       L  6.19639e-01 -5.48817e+00 -2.25374e+00
6
# CELL(abcABC):  459.05226   459.05226   459.05226    90.00000    90.00000    90.00000  Step:          51  Bead:       0 x_centroid{angstrom}  cell{atomic_unit}
       C -4.03938e-01 -1.92625e-02  1.92137e-01
       O  7.77678e-01  1.96107e-01 -2.51998e-01
       H  1.45100e+00  7.21441e-01 -8.56134e-01
       H -1.46234e-01 -9.34289e-01  7.49045e-01
       L -1.60110e+00  2.00973e+00 -6.37381e-01
       L  5.70640e-01 -5.62776e+00 -2.16187e+00
6
# CELL(abcABC):  459.05226   459.05226   459.05226    90.00000    90.00000    90.00000  Step:          52  Bead:       0 x_centroid{angstrom}  cell{atomic_unit}
       C -4.00315e-01 -1.33996e-02  1.91243e-01
       O  7.79567e-01  1.92761e-01 -2.52322e-01
       H  1.40208e+00  7.23942e-01 -8.48137e-01
       H -1.70391e-01 -9.53466e-01  7.56893e-01
       L -1.64934e+00  1.98226e+00 -8.77591e-01
       L  4.66136e-01 -5.73936e+00 -2.02369e+00
6
# CELL(abcABC):  459.05226   459.05226   459.05226    90.00000    90.00000    90.00000  Step:          53  Bead:       0 x_centroid{angstrom}  cell{atomic_unit}
       C -3.96512e-01 -7.79319e-03  1.90484e-01
       O  7.82171e-01  1.89699e-01 -2.52851e-01
       H  1.34238e+00  7.25213e-01 -8.39310e-01
       H -1.97304e-01 -9.72915e-01  7.65564e-01
       L -1.66738e+00  1.96771e+00 -1.11933e+00
       L  3.66831e-01 -5.78666e+00 -1.87578e+00
6
# CELL(abcABC):  459.05226   459.05226   459.05226    90.00000    90.00000    90.00000  Step:          54  Bead:       0 x_centroid{angstrom}  cell{atomic_unit}
       C -3.93125e-01 -2.38850e-03  1.89690e-01
       O  7.85528e-01  1.86587e-01 -2.53371e-01
       H  1.27748e+00  7.26795e-01 -8.30275e-01
       H -2.25974e-01 -9.89469e-01  7.74293e-01
       L -1.66571e+00  1.95919e+00 -1.35614e+00
       L  2.68188e-01 -5.81886e+00 -1.73198e+00
6
# CELL(abcABC):  459.05226   459.05226   459.05226    90.00000    90.00000    90.00000  Step:          55  Bead:       0 x_centroid{angstrom}  cell{atomic_unit}
       C -3.90255e-01  2.75089e-03  1.88950e-01
       O  7.89586e-01  1.83181e-01 -2.53732e-01
       H  1.20884e+00  7.33273e-01 -8.24500e-01
       H -2.55876e-01 -1.00315e+00  7.83053e-01
       L -1.66928e+00  1.91801e+00 -1.53747e+00
       L  1.38187e-01 -5.75323e+00 -1.51978e+00
6
# CELL(abcABC):  459.05226   459.05226   459.05226    90.00000    90.00000    90.00000  Step:          56  Bead:       0 x_centroid{angstrom}  cell{atomic_unit}
       C -3.87392e-01  7.62297e-03  1.88364e-01
       O  7.93636e-01  1.79138e-01 -2.53744e-01
       H  1.14158e+00  7.49111e-01 -8.24700e-01
       H -2.86946e-01 -1.01292e+00  7.90390e-01
       L -1.68821e+00  1.92855e+00 -1.72957e+00
       L -5.57135e-03 -5.64280e+00 -1.26260e+00
6
# CELL(abcABC):  459.05226   459.05226   459.05226    90.00000    90.00000    90.00000  Step:          57  Bead:       0 x_centroid{angstrom}  cell{atomic_unit}
       C -3.84704e-01  1.21269e-02  1.87963e-01
       O  7.97779e-01  1.74419e-01 -2.53262e-01
       H  1.07582e+00  7.74870e-01 -8.32675e-01
       H -3.18884e-01 -1.01754e+00  7.95464e-01
       L -1.68773e+00  1.93236e+00 -1.90260e+00
       L -1.59230e-01 -5.48354e+00 -1.02857e+00
6
# CELL(abcABC):  459.05226   459.05226   459.05226    90.00000    90.00000    90.00000  Step:          58  Bead:       0 x_centroid{angstrom}  cell{atomic_unit}
       C -3.82270e-01  1.62240e-02  1.87529e-01
       O  8.02057e-01  1.69021e-01 -2.52072e-01
       H  1.01031e+00  8.11098e-01 -8.49030e-01
       H -3.50232e-01 -1.01696e+00  7.98073e-01
       L -1.62563e+00  1.87980e+00 -2.02888e+00
       L -3.18704e-01 -5.33684e+00 -8.61896e-01
6
# CELL(abcABC):  459.05226   459.05226   459.05226    90.00000    90.00000    90.00000  Step:          59  Bead:       0 x_centroid{angstrom}  cell{atomic_unit}
       C -3.80012e-01  1.99045e-02  1.87520e-01
       O  8.06478e-01  1.63178e-01 -2.50697e-01
       H  9.44202e-01  8.53551e-01 -8.71700e-01
       H -3.81146e-01 -1.01060e+00  7.98976e-01
       L -1.59005e+00  1.83944e+00 -2.13897e+00
       L -4.64275e-01 -5.13060e+00 -6.62875e-01
6
# CELL(abcABC):  459.05226   459.05226   459.05226    90.00000    90.00000    90.00000  Step:          60  Bead:       0 x_centroid{angstrom}  cell{atomic_unit}
       C -3.78313e-01  2.31342e-02  1.87933e-01
       O  8.11271e-01  1.57255e-01 -2.49399e-01
       H  8.76208e-01  8.97351e-01 -8.94768e-01
       H -4.09423e-01 -9.98974e-01  7.96432e-01
       L -1.52911e+00  1.80022e+00 -2.19310e+00
       L -6.24629e-01 -4.89614e+00 -4.46759e-01
6
# CELL(abcABC):  459.05226   459.05226   459.05226    90.00000    90.00000    90.00000  Step:          61  Bead:       0 x_centroid{angstrom}  cell{atomic_unit}
       C -3.76887e-01  2.59204e-02  1.88649e-01
       O  8.16169e-01  1.51534e-01 -2.48399e-01
       H  8.08170e-01  9.36822e-01 -9.12249e-01
       H -4.36062e-01 -9.80969e-01  7.89433e-01
       L -1.46103e+00  1.75206e+00 -2.25988e+00
       L -8.25370e-01 -4.59935e+00 -2.42733e-01
6
# CELL(abcABC):  459.05226   459.05226   459.05226    90.00000    90.00000    90.00000  Step:          62  Bead:       0 x_centroid{angstrom}  cell{atomic_unit}
       C -3.75551e-01  2.83183e-02  1.89563e-01
       O  8.20919e-01  1.46307e-01 -2.47893e-01
       H  7.42283e-01  9.70349e-01 -9.23561e-01
       H -4.61462e-01 -9.60278e-01  7.81724e-01
       L -1.39111e+00  1.72555e+00 -2.29776e+00
       L -9.36432e-01 -4.24680e+00 -3.01174e-02
6
# CELL(abcABC):  459.05226   459.05226   459.05226    90.00000    90.00000    90.00000  Step:          63  Bead:       0 x_centroid{angstrom}  cell{atomic_unit}
       C -3.74822e-01  3.02162e-02  1.90426e-01
       O  8.25844e-01  1.41622e-01 -2.47761e-01
       H  6.79467e-01  9.96672e-01 -9.27093e-01
       H -4.85496e-01 -9.35063e-01  7.72805e-01
       L -1.27485e+00  1.69276e+00 -2.37882e+00
       L -1.06917e+00 -3.84315e+00  1.88543e-01
6
# CELL(abcABC):  459.05226   459.05226   459.05226    90.00000    90.00000    90.00000  Step:          64  Bead:       0 x_centroid{angstrom}  cell{atomic_unit}
       C -3.74501e-01  3.17357e-02  1.91665e-01
       O  8.30534e-01  1.37702e-01 -2.48312e-01
       H  6.22355e-01  1.01402e+00 -9.23623e-01
       H -5.06659e-01 -9.08506e-01  7.63213e-01
       L -1.12504e+00  1.64690e+00 -2.43646e+00
       L -1.24202e+00 -3.40287e+00  4.37456e-01
6
# CELL(abcABC):  459.05226   459.05226   459.05226    90.00000    90.00000    90.00000  Step:          65  Bead:       0 x_centroid{angstrom}  cell{atomic_unit}
       C -3.74352e-01  3.32566e-02  1.92933e-01
       O  8.34828e-01  1.34431e-01 -2.49438e-01
       H  5.72229e-01  1.02172e+00 -9.11866e-01
       H -5.26462e-01 -8.82655e-01  7.54110e-01
       L -9.85269e-01  1.62584e+00 -2.50924e+00
       L -1.38153e+00 -2.92510e+00  7.18282e-01
6
# CELL(abcABC):  459.05226   459.05226   459.05226    90.00000    90.00000    90.00000  Step:          66  Bead:       0 x_centroid{angstrom}  cell{atomic_unit}
       C -3.74383e-01  3.47868e-02  1.94083e-01