6
# CELL(abcABC):  459.05226   459.05226   459.05226    90.00000    90.00000    90.00000  Step:           0  Bead:       0 x_centroid{angstrom}  cell{atomic_unit}
       C -3.39887e-01 -1.13437e-01  8.06659e-02
       O  8.43483e-01  2.62672e-01 -1.81512e-01
       H -7.35799e-02  8.16467e-01 -6.61432e-01
       H -4.30016e-01 -9.65701e-01  7.62278e-01
       L  0.00000e+00  0.00000e+00  0.00000e+00
       L  0.00000e+00  0.00000e+00  0.00000e+00
6
# CELL(abcABC):  459.05226   459.05226   459.05226    90.00000    90.00000    90.00000  Step:           1  Bead:       0 x_centroid{angstrom}  cell{atomic_unit}
       C -3.40773e-01 -1.15864e-01  8.29310e-02
       O  8.44769e-01  2.63392e-01 -1.84151e-01
       H -8.97978e-02  8.24927e-01 -6.55640e-01
       H -4.23507e-01 -9.56852e-01  7.71277e-01
       L  1.40392e-01  9.88063e-02 -3.25496e-01
       L -4.00687e-01  2.14536e-01  5.23567e-01
6
# CELL(abcABC):  459.05226   459.05226   459.05226    90.00000    90.00000    90.00000  Step:           2  Bead:       0 x_centroid{angstrom}  cell{atomic_unit}
       C -3.41453e-01 -1.18055e-01  8.54413e-02
       O  8.45933e-01  2.63938e-01 -1.86936e-01
       H -1.06570e-01  8.33474e-01 -6.49362e-01
       H -4.16989e-01 -9.48091e-01  7.79195e-01
       L  2.81175e-01  1.92711e-01 -6.27524e-01
       L -7.71914e-01  3.75381e-01  1.00682e+00
6
# CELL(abcABC):  459.05226   459.05226   459.05226    90.00000    90.00000    90.00000  Step:           3  Bead:       0 x_centroid{angstrom}  cell{atomic_unit}
       C -3.42086e-01 -1.20165e-01  8.78760e-02
       O  8.47107e-01  2.64541e-01 -1.89738e-01
       H -1.24783e-01  8.40609e-01 -6.42141e-01
       H -4.09752e-01 -9.39787e-01  7.87401e-01
       L  3.67220e-01  3.02136e-01 -9.84349e-01
       L -1.05958e+00  5.26300e-01  1.43102e+00
6
# CELL(abcABC):  459.05226   459.05226   459.05226    90.00000    90.00000    90.00000  Step:           4  Bead:       0 x_centroid{angstrom}  cell{atomic_unit}
       C -3.42207e-01 -1.22210e-01  8.98869e-02
       O  8.48102e-01  2.65190e-01 -1.92342e-01
       H -1.43894e-01  8.46604e-01 -6.33771e-01
       H -4.04847e-01 -9.31909e-01  7.96330e-01
       L  4.07196e-01  4.31358e-01 -1.29984e+00
       L -1.36536e+00  7.47483e-01  1.87136e+00
6
# CELL(abcABC):  459.05226   459.05226   459.05226    90.00000    90.00000    90.00000  Step:           5  Bead:       0 x_centroid{angstrom}  cell{atomic_unit}
       C -3.42012e-01 -1.23757e-01  9.15541e-02
       O  8.49031e-01  2.65821e-01 -1.94743e-01
       H -1.65318e-01  8.49442e-01 -6.24703e-01
       H -4.00352e-01 -9.26512e-01  8.05415e-01
       L  4.56751e-01  5.93995e-01 -1.53245e+00
       L -1.67198e+00  9.04460e-01  2.28028e+00
6
# CELL(abcABC):  459.05226   459.05226   459.05226    90.00000    90.00000    90.00000  Step:           6  Bead:       0 x_centroid{angstrom}  cell{atomic_unit}
       C -3.41484e-01 -1.24733e-01  9.30983e-02
       O  8.49960e-01  2.66254e-01 -1.97080e-01
       H -1.90378e-01  8.50102e-01 -6.15202e-01
       H -3.96185e-01 -9.22577e-01  8.14481e-01
       L  4.85121e-01  7.43361e-01 -1.70325e+00
       L -1.99158e+00  1.05687e+00  2.68641e+00
6
# CELL(abcABC):  459.05226   459.05226   459.05226    90.00000    90.00000    90.00000  Step:           7  Bead:       0 x_centroid{angstrom}  cell{atomic_unit}
       C -3.40731e-01 -1.25407e-01  9.44101e-02
       O  8.51058e-01  2.66567e-01 -1.99326e-01
       H -2.20093e-01  8.48761e-01 -6.03671e-01
       H -3.92739e-01 -9.18349e-01  8.22854e-01
       L  5.31293e-01  8.97977e-01 -1.87916e+00
       L -2.27088e+00  1.23502e+00  3.08198e+00
6
# CELL(abcABC):  459.05226   459.05226   459.05226    90.00000    90.00000    90.00000  Step:           8  Bead:       0 x_centroid{angstrom}  cell{atomic_unit}
       C -3.39234e-01 -1.25479e-01  9.49996e-02
       O  8.51987e-01  2.66601e-01 -2.01251e-01
       H -2.55188e-01  8.45117e-01 -5.89457e-01
       H -3.90107e-01 -9.14551e-01  8.32004e-01
       L  5.92106e-01  1.01820e+00 -1.99062e+00
       L -2.54708e+00  1.40568e+00  3.47361e+00
6
# CELL(abcABC):  459.05226   459.05226   459.05226    90.00000    90.00000    90.00000  Step:           9  Bead:       0 x_centroid{angstrom}  cell{atomic_unit}
       C -3.36560e-01 -1.24874e-01  9.51351e-02
       O  8.52595e-01  2.66255e-01 -2.02878e-01
       H -2.97244e-01  8.39975e-01 -5.74199e-01
       H -3.89448e-01 -9.11281e-01  8.40826e-01
       L  6.26834e-01  1.13111e+00 -2.09535e+00
       L -2.79016e+00  1.55904e+00  3.83074e+00
6
# CELL(abcABC):  459.05226   459.05226   459.05226    90.00000    90.00000    90.00000  Step:          10  Bead:       0 x_centroid{angstrom}  cell{atomic_unit}
       C -3.32735e-01 -1.23483e-01  9.47521e-02
       O  8.53058e-01  2.65626e-01 -2.04149e-01
       H -3.48306e-01  8.31102e-01 -5.58134e-01
       H -3.91203e-01 -9.09131e-01  8.49373e-01
       L  6.42971e-01  1.21461e+00 -2.19093e+00
       L -3.03395e+00  1.72213e+00  4.15254e+00
6
# CELL(abcABC):  459.05226   459.05226   459.05226    90.00000    90.00000    90.00000  Step:          11  Bead:       0 x_centroid{angstrom}  cell{atomic_unit}
       C -3.27581e-01 -1.21268e-01  9.38253e-02
       O  8.53441e-01  2.64552e-01 -2.05069e-01
       H -4.11563e-01  8.19144e-01 -5.40096e-01
       H -3.95300e-01 -9.06618e-01  8.56876e-01
       L  6.14295e-01  1.26656e+00 -2.25959e+00
       L -3.25491e+00  1.85644e+00  4.43472e+00
6
# CELL(abcABC):  459.05226   459.05226   459.05226    90.00000    90.00000    90.00000  Step:          12  Bead:       0 x_centroid{angstrom}  cell{atomic_unit}
       C -3.20895e-01 -1.18136e-01  9.23211e-02
       O  8.53593e-01  2.62935e-01 -2.05574e-01
       H -4.86926e-01  8.04172e-01 -5.20162e-01
       H -4.01901e-01 -9.03368e-01  8.62701e-01
       L  5.86000e-01  1.29652e+00 -2.23577e+00
       L -3.45715e+00  1.95088e+00  4.74573e+00
6
# CELL(abcABC):  459.05226   459.05226   459.05226    90.00000    90.00000    90.00000  Step:          13  Bead:       0 x_centroid{angstrom}  cell{atomic_unit}
       C -3.13072e-01 -1.14442e-01  9.05577e-02
       O  8.53824e-01  2.61097e-01 -2.05828e-01
       H -5.74508e-01  7.85683e-01 -4.98782e-01
       H -4.11128e-01 -8.99776e-01  8.66159e-01
       L  6.14558e-01  1.31214e+00 -2.19117e+00
       L -3.61133e+00  2.06439e+00  5.06424e+00
6
# CELL(abcABC):  459.05226   459.05226   459.05226    90.00000    90.00000    90.00000  Step:          14  Bead:       0 x_centroid{angstrom}  cell{atomic_unit}
       C -3.04135e-01 -1.09735e-01  8.86776e-02
       O  8.54053e-01  2.58592e-01 -2.06051e-01
       H -6.73532e-01  7.63664e-01 -4.75478e-01
       H -4.22198e-01 -8.94153e-01  8.68670e-01
       L  6.69590e-01  1.39352e+00 -2.17897e+00
       L -3.72212e+00  2.10451e+00  5.28627e+00
6
# CELL(abcABC):  459.05226   459.05226   459.05226    90.00000    90.00000    90.00000  Step:          15  Bead:       0 x_centroid{angstrom}  cell{atomic_unit}
       C -2.93824e-01 -1.04170e-01  8.63075e-02
       O  8.54020e-01  2.55521e-01 -2.05831e-01
       H -7.82878e-01  7.38130e-01 -4.49670e-01
       H -4.35218e-01 -8.86246e-01  8.67509e-01
       L  7.77206e-01  1.47743e+00 -2.16136e+00
       L -3.79210e+00  2.10432e+00  5.46882e+00
6
# CELL(abcABC):  459.05226   459.05226   459.05226    90.00000    90.00000    90.00000  Step:          16  Bead:       0 x_centroid{angstrom}  cell{atomic_unit}
       C -2.82814e-01 -9.79817e-02  8.37727e-02
       O  8.54042e-01  2.52200e-01 -2.05452e-01
       H -8.99254e-01  7.07204e-01 -4.20786e-01
       H -4.50483e-01 -8.76356e-01  8.62736e-01
       L  8.96424e-01  1.57048e+00 -2.11232e+00
       L -3.76647e+00  2.04527e+00  5.56994e+00
6
# CELL(abcABC):  459.05226   459.05226   459.05226    90.00000    90.00000    90.00000  Step:          17  Bead:       0 x_centroid{angstrom}  cell{atomic_unit}
       C -2.71064e-01 -9.09033e-02  8.11046e-02
       O  8.53866e-01  2.48512e-01 -2.05022e-01
       H -1.01843e+00  6.70648e-01 -3.89224e-01
       H -4.68630e-01 -8.65601e-01  8.56103e-01
       L  1.04207e+00  1.65423e+00 -2.05890e+00
       L -3.72163e+00  1.96492e+00  5.59331e+00
6
# CELL(abcABC):  459.05226   459.05226   459.05226    90.00000    90.00000    90.00000  Step:          18  Bead:       0 x_centroid{angstrom}  cell{atomic_unit}
       C -2.59073e-01 -8.29968e-02  7.81612e-02
       O  8.53535e-01  2.44414e-01 -2.04357e-01
       H -1.13772e+00  6.29034e-01 -3.55242e-01
       H -4.87130e-01 -8.53124e-01  8.46618e-01
       L  1.24339e+00  1.69623e+00 -1.98788e+00
       L -3.59919e+00  1.84610e+00  5.53155e+00
6
# CELL(abcABC):  459.05226   459.05226   459.05226    90.00000    90.00000    90.00000  Step:          19  Bead:       0 x_centroid{angstrom}  cell{atomic_unit}
       C -2.47323e-01 -7.46760e-02  7.52521e-02
       O  8.53038e-01  2.40383e-01 -2.03778e-01
       H -1.25316e+00  5.82402e-01 -3.18943e-01
       H -5.04004e-01 -8.41583e-01  8.35830e-01
       L  1.41695e+00  1.68655e+00 -1.89308e+00
       L -3.45466e+00  1.72361e+00  5.38305e+00
6
# CELL(abcABC):  459.05226   459.05226   459.05226    90.00000    90.00000    90.00000  Step:          20  Bead:       0 x_centroid{angstrom}  cell{atomic_unit}
       C -2.36274e-01 -6.58516e-02  7.19168e-02
       O  8.52595e-01  2.36348e-01 -2.02938e-01
       H -1.36076e+00  5.29456e-01 -2.80823e-01
       H -5.21199e-01 -8.29650e-01  8.24108e-01
       L  1.56081e+00  1.67420e+00 -1.73642e+00
       L -3.24792e+00  1.58027e+00  5.24860e+00
6
# CELL(abcABC):  459.05226   459.05226   459.05226    90.00000    90.00000    90.00000  Step:          21  Bead:       0 x_centroid{angstrom}  cell{atomic_unit}
       C -2.26428e-01 -5.68627e-02  6.86034e-02
       O  8.52386e-01  2.32456e-01 -2.02046e-01
       H -1.45859e+00  4.72480e-01 -2.42031e-01
       H -5.37608e-01 -8.17917e-01  8.10665e-01
       L  1.74049e+00  1.67888e+00 -1.58888e+00
       L -3.02693e+00  1.39940e+00  5.04518e+00
6
# CELL(abcABC):  459.05226   459.05226   459.05226    90.00000    90.00000    90.00000  Step:          22  Bead:       0 x_centroid{angstrom}  cell{atomic_unit}
       C -2.17876e-01 -4.79893e-02  6.57737e-02
       O  8.52380e-01  2.28644e-01 -2.01382e-01
       H -1.54621e+00  4.14476e-01 -2.03230e-01
       H -5.52001e-01 -8.05005e-01  7.95124e-01
       L  1.87176e+00  1.67150e+00 -1.46710e+00
       L -2.79928e+00  1.17646e+00  4.79094e+00
6
# CELL(abcABC):  459.05226   459.05226   459.05226    90.00000    90.00000    90.00000  Step:          23  Bead:       0 x_centroid{angstrom}  cell{atomic_unit}
       C -2.10870e-01 -3.93154e-02  6.34465e-02
       O  8.52740e-01  2.25114e-01 -2.00924e-01
       H -1.62347e+00  3.55462e-01 -1.65170e-01
       H -5.64127e-01 -7.93145e-01  7.77637e-01
       L  1.97597e+00  1.59368e+00 -1.36550e+00
       L -2.56656e+00  9.40174e-01  4.47414e+00
6
# CELL(abcABC):  459.05226   459.05226   459.05226    90.00000    90.00000    90.00000  Step:          24  Bead:       0 x_centroid{angstrom}  cell{atomic_unit}
       C -2.05523e-01 -3.10416e-02  6.17981e-02
       O  8.53473e-01  2.21812e-01 -2.00925e-01
       H -1.68965e+00  2.97990e-01 -1.28197e-01
       H -5.73466e-01 -7.81638e-01  7.60410e-01
       L  2.04669e+00  1.49151e+00 -1.21925e+00
       L -2.32400e+00  6.36038e-01  4.18300e+00
6
# CELL(abcABC):  459.05226   459.05226   459.05226    90.00000    90.00000    90.00000  Step:          25  Bead:       0 x_centroid{angstrom}  cell{atomic_unit}
       C -2.02471e-01 -2.30892e-02  6.06606e-02
       O  8.54996e-01  2.18729e-01 -2.01107e-01
       H -1.74453e+00  2.42932e-01 -9.47404e-02
       H -5.79248e-01 -7.72195e-01  7.43494e-01
       L  2.05886e+00  1.45175e+00 -1.04316e+00
       L -2.10099e+00  3.00083e-01  3.81672e+00
6
# CELL(abcABC):  459.05226   459.05226   459.05226    90.00000    90.00000    90.00000  Step:          26  Bead:       0 x_centroid{angstrom}  cell{atomic_unit}
       C -2.01453e-01 -1.54994e-02  6.03778e-02
       O  8.57213e-01  2.15724e-01 -2.01744e-01
       H -1.79075e+00  1.91990e-01 -6.45926e-02
       H -5.80531e-01 -7.63793e-01  7.26923e-01
       L  2.12155e+00  1.41476e+00 -8.50194e-01
       L -1.83699e+00 -5.35674e-02  3.44210e+00
6
# CELL(abcABC):  459.05226   459.05226   459.05226    90.00000    90.00000    90.00000  Step:          27  Bead:       0 x_centroid{angstrom}  cell{atomic_unit}
       C -2.02589e-01 -8.79003e-03  6.09269e-02
       O  8.60265e-01  2.13332e-01 -2.02786e-01
       H -1.82876e+00  1.44322e-01 -3.85769e-02
       H -5.77614e-01 -7.57830e-01  7.11044e-01
       L  2.19844e+00  1.32826e+00 -6.62283e-01
       L -1.57931e+00 -4.56565e-01  3.01626e+00
6
# CELL(abcABC):  459.05226   459.05226   459.05226    90.00000    90.00000    90.00000  Step:          28  Bead:       0 x_centroid{angstrom}  cell{atomic_unit}
       C -2.05826e-01 -2.78325e-03  6.21689e-02
       O  8.64054e-01  2.11208e-01 -2.04315e-01
       H -1.85759e+00  1.03664e-01 -1.73196e-02
       H -5.70552e-01 -7.54814e-01  6.99400e-01
       L  2.29857e+00  1.27070e+00 -4.76823e-01
       L -1.32536e+00 -8.06791e-01  2.56417e+00
6
# CELL(abcABC):  459.05226   459.05226   459.05226    90.00000    90.00000    90.00000  Step:          29  Bead:       0 x_centroid{angstrom}  cell{atomic_unit}
       C -2.10799e-01  2.31955e-03  6.39808e-02
       O  8.68449e-01  2.09681e-01 -2.06106e-01
       H -1.87848e+00  6.86958e-02 -1.48221e-03
       H -5.60327e-01 -7.56136e-01  6.90583e-01
       L  2.35258e+00  1.11101e+00 -2.62450e-01
       L -1.07944e+00 -1.16160e+00  2.01520e+00
6
# CELL(abcABC):  459.05226   459.05226   459.05226    90.00000    90.00000    90.00000  Step:          30  Bead:       0 x_centroid{angstrom}  cell{atomic_unit}
       C -2.17202e-01  6.41890e-03  6.60927e-02
       O  8.73139e-01  2.08625e-01 -2.08189e-01
       H -1.89137e+00  4.03891e-02  1.05221e-02
       H -5.45740e-01 -7.59652e-01  6.86678e-01
       L  2.41020e+00  9.41446e-01 -3.39234e-02
       L -8.31036e-01 -1.46110e+00  1.41221e+00
6
# CELL(abcABC):  459.05226   459.05226   459.05226    90.00000    90.00000    90.00000  Step:          31  Bead:       0 x_centroid{angstrom}  cell{atomic_unit}
       C -2.24824e-01  1.01993e-02  6.85034e-02
       O  8.78025e-01  2.07717e-01 -2.10389e-01
       H -1.89664e+00  1.76566e-02  1.79525e-02
       H -5.27394e-01 -7.67348e-01  6.85679e-01
       L  2.47823e+00  7.88415e-01  1.38321e-01
       L -5.64723e-01 -1.68631e+00  8.03005e-01
6
# CELL(abcABC):  459.05226   459.05226   459.05226    90.00000    90.00000    90.00000  Step:          32  Bead:       0 x_centroid{angstrom}  cell{atomic_unit}
       C -2.33342e-01  1.33807e-02  7.10250e-02
       O  8.82905e-01  2.07152e-01 -2.12675e-01
       H -1.89379e+00  8.59290e-04  2.16413e-02
       H -5.06382e-01 -7.79278e-01  6.88516e-01
       L  2.52192e+00  5.89140e-01  2.55513e-01
       L -2.93514e-01 -1.88127e+00  1.68833e-01
6
# CELL(abcABC):  459.05226   459.05226   459.05226    90.00000    90.00000    90.00000  Step:          33  Bead:       0 x_centroid{angstrom}  cell{atomic_unit}
       C -2.42435e-01  1.57200e-02  7.40167e-02
       O  8.87582e-01  2.07018e-01 -2.15375e-01
       H -1.88300e+00 -1.01186e-02  2.17903e-02
       H -4.83203e-01 -7.93850e-01  6.95823e-01
       L  2.54181e+00  3.54362e-01  4.03319e-01
       L -4.74443e-02 -2.02141e+00 -4.46341e-01
6
# CELL(abcABC):  459.05226   459.05226   459.05226    90.00000    90.00000    90.00000  Step:          34  Bead:       0 x_centroid{angstrom}  cell{atomic_unit}
       C -2.51863e-01  1.71843e-02  7.70388e-02
       O  8.91824e-01  2.07329e-01 -2.18009e-01
       H -1.86285e+00 -1.59332e-02  1.75332e-02
       H -4.58485e-01 -8.10236e-01  7.06144e-01
       L  2.57721e+00  7.39344e-02  5.58501e-01
       L  1.94798e-01 -2.06474e+00 -1.08238e+00
6
# CELL(abcABC):  459.05226   459.05226   459.05226    90.00000    90.00000    90.00000  Step:          35  Bead:       0 x_centroid{angstrom}  cell{atomic_unit}
       C -2.61550e-01  1.76812e-02  8.03830e-02
       O  8.95407e-01  2.08041e-01 -2.20826e-01
       H -1.83341e+00 -1.64606e-02  7.98278e-03
       H -4.29510e-01 -8.26771e-01  7.20798e-01
       L  2.61702e+00 -2.05052e-01  6.86669e-01
       L  4.01991e-01 -2.08316e+00 -1.64603e+00
6
# CELL(abcABC):  459.05226   459.05226   459.05226    90.00000    90.00000    90.00000  Step:          36  Bead:       0 x_centroid{angstrom}  cell{atomic_unit}
       C -2.71336e-01  1.73959e-02  8.41514e-02
       O  8.98467e-01  2.08999e-01 -2.23864e-01
       H -1.79532e+00 -1.07017e-02 -5.19439e-03
       H -3.99661e-01 -8.44180e-01  7.37539e-01
       L  2.66484e+00 -4.93474e-01  8.08328e-01
       L  5.58883e-01 -2.08904e+00 -2.23130e+00
6
# CELL(abcABC):  459.05226   459.05226   459.05226    90.00000    90.00000    90.00000  Step:          37  Bead:       0 x_centroid{angstrom}  cell{atomic_unit}
       C -2.81364e-01  1.63841e-02  8.83271e-02
       O  9.00991e-01  2.10176e-01 -2.27085e-01
       H -1.74570e+00  4.23074e-04 -2.11713e-02
       H -3.69935e-01 -8.61777e-01  7.55183e-01
       L  2.65620e+00 -7.69341e-01  8.86615e-01
       L  6.97103e-01 -2.09713e+00 -2.83589e+00
6
# CELL(abcABC):  459.05226   459.05226   459.05226    90.00000    90.00000    90.00000  Step:          38  Bead:       0 x_centroid{angstrom}  cell{atomic_unit}
       C -2.91060e-01  1.42706e-02  9.25351e-02
       O  9.02512e-01  2.11654e-01 -2.30116e-01
       H -1.68452e+00  1.76048e-02 -4.13346e-02
       H -3.39782e-01 -8.77092e-01  7.73580e-01
       L  2.60754e+00 -1.03749e+00  9.35084e-01
       L  8.70051e-01 -2.08675e+00 -3.39633e+00
6
# CELL(abcABC):  459.05226   459.05226   459.05226    90.00000    90.00000    90.00000  Step:          39  Bead:       0 x_centroid{angstrom}  cell{atomic_unit}
       C -3.00434e-01  1.08192e-02  9.68222e-02
       O  9.03119e-01  2.13660e-01 -2.33022e-01
       H -1.61277e+00  3.99490e-02 -6.32346e-02
       H -3.09527e-01 -8.90050e-01  7.90811e-01
       L  2.58240e+00 -1.22768e+00  9.71520e-01
       L  1.01032e+00 -2.08431e+00 -3.94907e+00
6
# CELL(abcABC):  459.05226   459.05226   459.05226    90.00000    90.00000    90.00000  Step:          40  Bead:       0 x_centroid{angstrom}  cell{atomic_unit}
       C -3.09145e-01  6.28355e-03  1.01146e-01
       O  9.02594e-01  2.15899e-01 -2.35737e-01
       H -1.52992e+00  6.81847e-02 -8.77372e-02
       H -2.80263e-01 -8.99689e-01  8.07144e-01
       L  2.50644e+00 -1.39777e+00  1.02864e+00
       L  1.11803e+00 -2.07299e+00 -4.49931e+00
6
# CELL(abcABC):  459.05226   459.05226   459.05226    90.00000    90.00000    90.00000  Step:          41  Bead:       0 x_centroid{angstrom}  cell{atomic_unit}
       C -3.17079e-01  8.70705e-04  1.05547e-01
       O  9.00947e-01  2.18350e-01 -2.38398e-01
       H -1.43744e+00  1.00443e-01 -1.13989e-01
       H -2.52010e-01 -9.06289e-01  8.23455e-01
       L  2.41191e+00 -1.56524e+00  1.10303e+00
       L  1.13534e+00 -2.04523e+00 -5.02287e+00
6
# CELL(abcABC):  459.05226   459.05226   459.05226    90.00000    90.00000    90.00000  Step:          42  Bead:       0 x_centroid{angstrom}  cell{atomic_unit}
       C -3.23489e-01 -5.42948e-03  1.10161e-01
       O  8.97976e-01  2.20961e-01 -2.40940e-01
       H -1.33905e+00  1.36915e-01 -1.42587e-01
       H -2.26850e-01 -9.09040e-01  8.37614e-01
       L  2.32463e+00 -1.77320e+00  1.23154e+00
       L  1.20157e+00 -2.00448e+00 -5.49897e+00
6
# CELL(abcABC):  459.05226   459.05226   459.05226    90.00000    90.00000    90.00000  Step:          43  Bead:       0 x_centroid{angstrom}  cell{atomic_unit}
       C -3.28118e-01 -1.22923e-02  1.15194e-01
       O  8.93954e-01  2.23476e-01 -2.43501e-01
       H -1.24196e+00  1.77992e-01 -1.74271e-01
       H -2.04906e-01 -9.08176e-01  8.50138e-01
       L  2.19949e+00 -1.91499e+00  1.34831e+00
       L  1.26442e+00 -2.00036e+00 -5.92688e+00
6
# CELL(abcABC):  459.05226   459.05226   459.05226    90.00000    90.00000    90.00000  Step:          44  Bead:       0 x_centroid{angstrom}  cell{atomic_unit}
       C -3.30034e-01 -2.01495e-02  1.20862e-01
       O  8.88934e-01  2.26085e-01 -2.46064e-01
       H -1.15710e+00  2.25411e-01 -2.11270e-01
       H -1.87206e-01 -9.03358e-01  8.60432e-01
       L  2.03967e+00 -1.99742e+00  1.44852e+00
       L  1.35629e+00 -1.96277e+00 -6.31660e+00
6
# CELL(abcABC):  459.05226   459.05226   459.05226    90.00000    90.00000    90.00000  Step:          45  Bead:       0 x_centroid{angstrom}  cell{atomic_unit}
       C -3.28223e-01 -2.90872e-02  1.26819e-01
       O  8.82682e-01  2.28746e-01 -2.48276e-01
       H -1.09244e+00  2.81285e-01 -2.56619e-01
       H -1.74201e-01 -8.94963e-01  8.70038e-01
       L  1.85508e+00 -2.05439e+00  1.54953e+00
       L  1.50231e+00 -1.92455e+00 -6.64902e+00
6
# CELL(abcABC):  459.05226   459.05226   459.05226    90.00000    90.00000    90.00000  Step:          46  Bead:       0 x_centroid{angstrom}  cell{atomic_unit}
       C -3.22645e-01 -3.90218e-02  1.33772e-01
       O  8.75326e-01  2.31295e-01 -2.50504e-01
       H -1.04961e+00  3.47284e-01 -3.11698e-01
       H -1.66645e-01 -8.83033e-01  8.77763e-01
       L  1.60133e+00 -2.14288e+00  1.61995e+00
       L  1.61301e+00 -1.84396e+00 -6.94418e+00
6
# CELL(abcABC):  459.05226   459.05226   459.05226    90.00000    90.00000    90.00000  Step:          47  Bead:       0 x_centroid{angstrom}  cell{atomic_unit}
       C -3.13889e-01 -4.99229e-02  1.41207e-01
       O  8.66949e-01  2.33847e-01 -2.52564e-01
       H -1.02372e+00  4.20504e-01 -3.73708e-01
       H -1.63790e-01 -8.66875e-01  8.83967e-01
       L  1.32942e+00 -2.18762e+00  1.65834e+00
       L  1.70347e+00 -1.78515e+00 -7.17191e+00
6
# CELL(abcABC):  459.05226   459.05226   459.05226    90.00000    90.00000    90.00000  Step:          48  Bead:       0 x_centroid{angstrom}  cell{atomic_unit}
       C -3.02951e-01 -6.09983e-02  1.48568e-01
       O  8.57818e-01  2.36216e-01 -2.54444e-01
       H -1.00741e+00  4.97824e-01 -4.38092e-01
       H -1.65436e-01 -8.49891e-01  8.90526e-01
       L  1.09081e+00 -2.20300e+00  1.74343e+00
       L  1.79908e+00 -1.65364e+00 -7.33795e+00
6
# CELL(abcABC):  459.05226   459.05226   459.05226    90.00000    90.00000    90.00000  Step:          49  Bead:       0 x_centroid{angstrom}  cell{atomic_unit}
       C -2.90473e-01 -7.18865e-02  1.55326e-01
       O  8.48118e-01  2.38476e-01 -2.56083e-01
       H -9.95366e-01  5.74235e-01 -4.99777e-01
       H -1.72077e-01 -8.32509e-01  8.97765e-01
       L  8.16933e-01 -2.21420e+00  1.76181e+00
       L  1.84401e+00 -1.47585e+00 -7.46380e+00
6
# CELL(abcABC):  459.05226   459.05226   459.05226    90.00000    90.00000    90.00000  Step:          50  Bead:       0 x_centroid{angstrom}  cell{atomic_unit}
       C -2.76776e-01 -8.20280e-02  1.60756e-01
       O  8.38015e-01  2.40639e-01 -2.57233e-01
       H -9.85527e-01  6.45234e-01 -5.53990e-01
       H -1.84644e-01 -8.17103e-01  9.05547e-01
       L  5.90830e-01 -2.21905e+00  1.75153e+00
       L  1.85864e+00 -1.29629e+00 -7.50032e+00
6
# CELL(abcABC):  459.05226   459.05226   459.05226    90.00000    90.00000    90.00000  Step:          51  Bead:       0 x_centroid{angstrom}  cell{atomic_unit}
       C -2.62369e-01 -9.08438e-02  1.64995e-01
       O  8.27668e-01  2.42448e-01 -2.58152e-01
       H -9.75729e-01  7.09032e-01 -5.99983e-01
       H -2.01778e-01 -8.04687e-01  9.15630e-01
       L  3.82439e-01 -2.20537e+00  1.71083e+00
       L  1.90848e+00 -1.07238e+00 -7.48246e+00
6
# CELL(abcABC):  459.05226   459.05226   459.05226    90.00000    90.00000    90.00000  Step:          52  Bead:       0 x_centroid{angstrom}  cell{atomic_unit}
       C -2.47445e-01 -9.82742e-02  1.68228e-01
       O  8.17387e-01  2.43957e-01 -2.59014e-01
       H -9.67908e-01  7.64391e-01 -6.37701e-01
       H -2.24131e-01 -7.95608e-01  9.28469e-01
       L  1.15608e-01 -2.16828e+00  1.68260e+00
       L  1.96075e+00 -8.45828e-01 -7.39262e+00
6
# CELL(abcABC):  459.05226   459.05226   459.05226    90.00000    90.00000    90.00000  Step:          53  Bead:       0 x_centroid{angstrom}  cell{atomic_unit}
       C -2.32172e-01 -1.04313e-01  1.70116e-01
       O  8.07168e-01  2.45441e-01 -2.59630e-01
       H -9.59680e-01  8.09901e-01 -6.66532e-01
       H -2.52057e-01 -7.92863e-01  9.44517e-01
       L -1.38609e-01 -2.14501e+00  1.67399e+00
       L  2.06743e+00 -5.90638e-01 -7.27129e+00
6
# CELL(abcABC):  459.05226   459.05226   459.05226    90.00000    90.00000    90.00000  Step:          54  Bead:       0 x_centroid{angstrom}  cell{atomic_unit}
       C -2.16704e-01 -1.09142e-01  1.71037e-01
       O  7.97125e-01  2.46831e-01 -2.60209e-01
       H -9.53615e-01  8.45927e-01 -6.87056e-01
       H -2.82920e-01 -7.93577e-01  9.63125e-01
       L -4.13932e-01 -2.05455e+00  1.67780e+00
       L  2.14616e+00 -3.88449e-01 -7.03807e+00
6
# CELL(abcABC):  459.05226   459.05226   459.05226    90.00000    90.00000    90.00000  Step:          55  Bead:       0 x_centroid{angstrom}  cell{atomic_unit}
       C -2.01810e-01 -1.12943e-01  1.70830e-01
       O  7.87817e-01  2.48138e-01 -2.60780e-01
       H -9.48065e-01  8.73228e-01 -6.98952e-01
       H -3.18117e-01 -7.96527e-01  9.86399e-01
       L -6.88019e-01 -1.87981e+00  1.66288e+00
       L  2.26830e+00 -1.88626e-01 -6.72061e+00
6
# CELL(abcABC):  459.05226   459.05226   459.05226    90.00000    90.00000    90.00000  Step:          56  Bead:       0 x_centroid{angstrom}  cell{atomic_unit}
       C -1.87929e-01 -1.15793e-01  1.69861e-01
       O  7.79508e-01  2.49303e-01 -2.61427e-01
       H -9.44065e-01  8.90809e-01 -7.01218e-01
       H -3.55535e-01 -7.98914e-01  1.01033e+00
       L -9.78964e-01 -1.63959e+00  1.58971e+00
       L  2.37422e+00  6.88697e-02 -6.38474e+00
6
# CELL(abcABC):  459.05226   459.05226   459.05226    90.00000    90.00000    90.00000  Step:          57  Bead:       0 x_centroid{angstrom}  cell{atomic_unit}
       C -1.75495e-01 -1.17794e-01  1.68592e-01
       O  7.72684e-01  2.50281e-01 -2.62277e-01
       H -9.43625e-01  9.00355e-01 -6.95449e-01
       H -3.95683e-01 -8.00364e-01  1.03305e+00
       L -1.26746e+00 -1.48162e+00  1.46056e+00
       L  2.42184e+00  3.35465e-01 -6.01948e+00
6
# CELL(abcABC):  459.05226   459.05226   459.05226    90.00000    90.00000    90.00000  Step:          58  Bead:       0 x_centroid{angstrom}  cell{atomic_unit}
       C -1.65009e-01 -1.19440e-01  1.67059e-01
       O  7.67438e-01  2.51282e-01 -2.63226e-01
       H -9.46177e-01  9.02862e-01 -6.83294e-01
       H -4.34698e-01 -7.99384e-01  1.05409e+00
       L -1.51602e+00 -1.33182e+00  1.31354e+00
       L  2.45414e+00  6.04568e-01 -5.63547e+00
6
# CELL(abcABC):  459.05226   459.05226   459.05226    90.00000    90.00000    90.00000  Step:          59  Bead:       0 x_centroid{angstrom}  cell{atomic_unit}
       C -1.56878e-01 -1.20441e-01  1.65862e-01
       O  7.64088e-01  2.52193e-01 -2.64478e-01
       H -9.51882e-01  8.96732e-01 -6.64098e-01
       H -4.72567e-01 -7.96029e-01  1.06889e+00
       L -1.74658e+00 -1.17328e+00  1.14309e+00
       L  2.42023e+00  9.08382e-01 -5.21165e+00
6
# CELL(abcABC):  459.05226   459.05226   459.05226    90.00000    90.00000    90.00000  Step:          60  Bead:       0 x_centroid{angstrom}  cell{atomic_unit}
       C -1.51659e-01 -1.21104e-01  1.64712e-01
       O  7.63025e-01  2.53182e-01 -2.65895e-01
       H -9.60702e-01  8.83009e-01 -6.38481e-01
       H -5.08927e-01 -7.90355e-01  1.07933e+00
       L -1.94952e+00 -1.00555e+00  9.82507e-01
       L  2.38848e+00  1.17405e+00 -4.78065e+00
6
# CELL(abcABC):  459.05226   459.05226   459.05226    90.00000    90.00000    90.00000  Step:          61  Bead:       0 x_centroid{angstrom}  cell{atomic_unit}
       C -1.49175e-01 -1.21535e-01  1.64060e-01
       O  7.64180e-01  2.54345e-01 -2.67909e-01
       H -9.74063e-01  8.62974e-01 -6.05020e-01
       H -5.43388e-01 -7.83841e-01  1.08546e+00
       L -2.12117e+00 -8.31231e-01  7.87036e-01
       L  2.35737e+00  1.38858e+00 -4.31139e+00
6
# CELL(abcABC):  459.05226   459.05226   459.05226    90.00000    90.00000    90.00000  Step:          62  Bead:       0 x_centroid{angstrom}  cell{atomic_unit}
       C -1.49731e-01 -1.21477e-01  1.63707e-01
       O  7.67546e-01  2.55376e-01 -2.70268e-01
       H -9.89836e-01  8.35792e-01 -5.63555e-01
       H -5.74352e-01 -7.73934e-01  1.08548e+00
       L -2.27638e+00 -6.48484e-01  5.80183e-01
       L  2.37420e+00  1.58172e+00 -3.80229e+00
6
# CELL(abcABC):  459.05226   459.05226   459.05226    90.00000    90.00000    90.00000  Step:          63  Bead:       0 x_centroid{angstrom}  cell{atomic_unit}
       C -1.53189e-01 -1.21045e-01  1.64007e-01
       O  7.72967e-01  2.56438e-01 -2.73054e-01
       H -1.00748e+00  8.00875e-01 -5.17012e-01
       H -6.01451e-01 -7.61242e-01  1.07935e+00
       L -2.43161e+00 -4.29392e-01  4.29556e-01
       L  2.35554e+00  1.79072e+00 -3.22909e+00
6
# CELL(abcABC):  459.05226   459.05226   459.05226    90.00000    90.00000    90.00000  Step:          64  Bead:       0 x_centroid{angstrom}  cell{atomic_unit}
       C -1.59208e-01 -1.19883e-01  1.64733e-01
       O  7.80087e-01  2.57258e-01 -2.76159e-01
       H -1.02655e+00  7.58368e-01 -4.65637e-01
       H -6.23559e-01 -7.45870e-01  1.06838e+00
       L -2.61501e+00 -1.78711e-01  2.75862e-01
       L  2.31780e+00  2.03663e+00 -2.65303e+00
6
# CELL(abcABC):  459.05226   459.05226   459.05226    90.00000    90.00000    90.00000  Step:          65  Bead:       0 x_centroid{angstrom}  cell{atomic_unit}
       C -1.67963e-01 -1.18207e-01  1.65844e-01
       O  7.88968e-01  2.58136e-01 -2.79539e-01
       H -1.04693e+00  7.07685e-01 -4.08523e-01
       H -6.39686e-01 -7.29391e-01  1.05146e+00
       L -2.81332e+00  7.51925e-02  1.32624e-01
       L  2.26568e+00  2.32949e+00 -2.08759e+00
6
# CELL(abcABC):  459.05226   459.05226   459.05226    90.00000    90.00000    90.00000  Step:          66  Bead:       0 x_centroid{angstrom}  cell{atomic_unit}
       C -1.78887e-01 -1.15988e-01  1.66900e-01