6
# CELL(abcABC):  459.05226   459.05226   459.05226    90.00000    90.00000    90.00000  Step:           0  Bead:       0 x_centroid{angstrom}  cell{atomic_unit}
       C -3.39887e-01 -1.13437e-01  8.06659e-02
       O  8.43483e-01  2.62672e-01 -1.81512e-01
       H -7.35799e-02  8.16467e-01 -6.61432e-01
       H -4.30016e-01 -9.65701e-01  7.62278e-01
       L  0.00000e+00  0.00000e+00  0.00000e+00
       L  0.00000e+00  0.00000e+00  0.00000e+00
6
# CELL(abcABC):  459.05226   459.05226   459.05226    90.00000    90.00000    90.00000  Step:           1  Bead:       0 x_centroid{angstrom}  cell{atomic_unit}
       C -3.38514e-01 -1.14921e-01  7.83816e-02
       O  8.43035e-01  2.63994e-01 -1.79355e-01
       H -7.81924e-02  8.10217e-01 -6.60752e-01
       H -4.35056e-01 -9.62809e-01  7.55081e-01
       L  6.34600e-01  1.11702e-02 -4.30730e-01
       L  1.30262e-01  8.86454e-02 -5.01989e-01
6
# CELL(abcABC):  459.05226   459.05226   459.05226    90.00000    90.00000    90.00000  Step:           2  Bead:       0 x_centroid{angstrom}  cell{atomic_unit}
       C -3.37088e-01 -1.16404e-01  7.58186e-02
       O  8.42537e-01  2.65333e-01 -1.77008e-01
       H -8.36355e-02  8.04193e-01 -6.59590e-01
       H -4.39172e-01 -9.60440e-01  7.47716e-01
       L  1.35565e+00 -8.34340e-03 -8.82787e-01
       L  2.60593e-01  2.10294e-01 -9.77637e-01
6
# CELL(abcABC):  459.05226   459.05226   459.05226    90.00000    90.00000    90.00000  Step:           3  Bead:       0 x_centroid{angstrom}  cell{atomic_unit}
       C -3.35810e-01 -1.17913e-01  7.30450e-02
       O  8.42171e-01  2.66659e-01 -1.74462e-01
       H -8.83503e-02  7.99064e-01 -6.58975e-01
       H -4.44297e-01 -9.58372e-01  7.40248e-01
       L  2.02497e+00 -5.26131e-02 -1.34860e+00
       L  3.60833e-01  2.69439e-01 -1.46562e+00
6
# CELL(abcABC):  459.05226   459.05226   459.05226    90.00000    90.00000    90.00000  Step:           4  Bead:       0 x_centroid{angstrom}  cell{atomic_unit}
       C -3.34532e-01 -1.19437e-01  7.01385e-02
       O  8.41949e-01  2.68129e-01 -1.71989e-01
       H -9.54297e-02  7.94489e-01 -6.57389e-01
       H -4.49334e-01 -9.58976e-01  7.34566e-01
       L  2.66703e+00 -9.80193e-02 -1.83649e+00
       L  4.75008e-01  3.22636e-01 -1.92785e+00
6
# CELL(abcABC):  459.05226   459.05226   459.05226    90.00000    90.00000    90.00000  Step:           5  Bead:       0 x_centroid{angstrom}  cell{atomic_unit}
       C -3.33511e-01 -1.20769e-01  6.70119e-02
       O  8.41961e-01  2.69426e-01 -1.69388e-01
       H -1.04230e-01  7.90418e-01 -6.55310e-01
       H -4.53255e-01 -9.59592e-01  7.28962e-01
       L  3.26589e+00 -1.63294e-01 -2.40386e+00
       L  5.49669e-01  3.35141e-01 -2.29802e+00
6
# CELL(abcABC):  459.05226   459.05226   459.05226    90.00000    90.00000    90.00000  Step:           6  Bead:       0 x_centroid{angstrom}  cell{atomic_unit}
       C -3.32378e-01 -1.21931e-01  6.36621e-02
       O  8.42143e-01  2.70584e-01 -1.66593e-01
       H -1.15933e-01  7.87419e-01 -6.54795e-01
       H -4.58290e-01 -9.61108e-01  7.24490e-01
       L  3.82912e+00 -2.22666e-01 -2.95549e+00
       L  6.16338e-01  3.52799e-01 -2.66451e+00
6
# CELL(abcABC):  459.05226   459.05226   459.05226    90.00000    90.00000    90.00000  Step:           7  Bead:       0 x_centroid{angstrom}  cell{atomic_unit}
       C -3.31141e-01 -1.22979e-01  6.03191e-02
       O  8.42497e-01  2.71692e-01 -1.63849e-01
       H -1.31336e-01  7.84804e-01 -6.54865e-01
       H -4.63614e-01 -9.63568e-01  7.21334e-01
       L  4.39725e+00 -2.38311e-01 -3.52383e+00
       L  7.24265e-01  3.29241e-01 -2.97968e+00
6
# CELL(abcABC):  459.05226   459.05226   459.05226    90.00000    90.00000    90.00000  Step:           8  Bead:       0 x_centroid{angstrom}  cell{atomic_unit}
       C -3.29789e-01 -1.23866e-01  5.68990e-02
       O  8.43081e-01  2.72765e-01 -1.61059e-01
       H -1.51564e-01  7.81475e-01 -6.54846e-01
       H -4.69045e-01 -9.66692e-01  7.18203e-01
       L  4.82725e+00 -2.19468e-01 -4.02310e+00
       L  8.16664e-01  2.87584e-01 -3.25441e+00
6
# CELL(abcABC):  459.05226   459.05226   459.05226    90.00000    90.00000    90.00000  Step:           9  Bead:       0 x_centroid{angstrom}  cell{atomic_unit}
       C -3.28374e-01 -1.24736e-01  5.33829e-02
       O  8.44045e-01  2.73812e-01 -1.58106e-01
       H -1.78793e-01  7.79721e-01 -6.55541e-01
       H -4.74268e-01 -9.71232e-01  7.14271e-01
       L  5.25255e+00 -1.37093e-01 -4.45976e+00
       L  8.94085e-01  2.93550e-01 -3.46822e+00
6
# CELL(abcABC):  459.05226   459.05226   459.05226    90.00000    90.00000    90.00000  Step:          10  Bead:       0 x_centroid{angstrom}  cell{atomic_unit}
       C -3.26872e-01 -1.25246e-01  4.94667e-02
       O  8.45452e-01  2.74631e-01 -1.54797e-01
       H -2.13248e-01  7.78416e-01 -6.56215e-01
       H -4.80300e-01 -9.76935e-01  7.09450e-01
       L  5.63004e+00 -5.17041e-02 -4.85156e+00
       L  1.02325e+00  3.40720e-01 -3.74127e+00
6
# CELL(abcABC):  459.05226   459.05226   459.05226    90.00000    90.00000    90.00000  Step:          11  Bead:       0 x_centroid{angstrom}  cell{atomic_unit}
       C -3.25063e-01 -1.25142e-01  4.50590e-02
       O  8.47377e-01  2.75084e-01 -1.51156e-01
       H -2.58021e-01  7.75391e-01 -6.56973e-01
       H -4.87870e-01 -9.82411e-01  7.05247e-01
       L  5.89840e+00  2.03875e-02 -5.19821e+00
       L  1.15720e+00  3.98316e-01 -3.98142e+00
6
# CELL(abcABC):  459.05226   459.05226   459.05226    90.00000    90.00000    90.00000  Step:          12  Bead:       0 x_centroid{angstrom}  cell{atomic_unit}
       C -3.22440e-01 -1.24468e-01  4.02088e-02
       O  8.49410e-01  2.75221e-01 -1.47245e-01
       H -3.12746e-01  7.70331e-01 -6.56812e-01
       H -4.96822e-01 -9.87644e-01  7.01052e-01
       L  6.06024e+00  1.50465e-01 -5.45709e+00
       L  1.29114e+00  4.48030e-01 -4.18464e+00
6
# CELL(abcABC):  459.05226   459.05226   459.05226    90.00000    90.00000    90.00000  Step:          13  Bead:       0 x_centroid{angstrom}  cell{atomic_unit}
       C -3.19136e-01 -1.23187e-01  3.49873e-02
       O  8.51822e-01  2.74870e-01 -1.42989e-01
       H -3.80130e-01  7.64875e-01 -6.56699e-01
       H -5.07264e-01 -9.91982e-01  6.95801e-01
       L  6.16440e+00  2.62752e-01 -5.68323e+00
       L  1.47884e+00  5.07454e-01 -4.30815e+00
6
# CELL(abcABC):  459.05226   459.05226   459.05226    90.00000    90.00000    90.00000  Step:          14  Bead:       0 x_centroid{angstrom}  cell{atomic_unit}
       C -3.14706e-01 -1.21320e-01  2.94737e-02
       O  8.54381e-01  2.74145e-01 -1.38446e-01
       H -4.61139e-01  7.56740e-01 -6.55650e-01
       H -5.19786e-01 -9.94678e-01  6.88463e-01
       L  6.22796e+00  4.25279e-01 -5.86119e+00
       L  1.65482e+00  5.33976e-01 -4.35780e+00
6
# CELL(abcABC):  459.05226   459.05226   459.05226    90.00000    90.00000    90.00000  Step:          15  Bead:       0 x_centroid{angstrom}  cell{atomic_unit}
       C -3.09310e-01 -1.18740e-01  2.35167e-02
       O  8.57280e-01  2.72990e-01 -1.33484e-01
       H -5.56796e-01  7.44748e-01 -6.52436e-01
       H -5.34550e-01 -9.95204e-01  6.77549e-01
       L  6.23401e+00  6.16710e-01 -6.02350e+00
       L  1.82764e+00  5.49895e-01 -4.34395e+00
6
# CELL(abcABC):  459.05226   459.05226   459.05226    90.00000    90.00000    90.00000  Step:          16  Bead:       0 x_centroid{angstrom}  cell{atomic_unit}
       C -3.02706e-01 -1.15182e-01  1.71561e-02
       O  8.60133e-01  2.71193e-01 -1.28391e-01
       H -6.64037e-01  7.28333e-01 -6.45769e-01
       H -5.51293e-01 -9.92764e-01  6.65886e-01
       L  6.10595e+00  8.00214e-01 -6.20033e+00
       L  1.99142e+00  5.27784e-01 -4.27789e+00
6
# CELL(abcABC):  459.05226   459.05226   459.05226    90.00000    90.00000    90.00000  Step:          17  Bead:       0 x_centroid{angstrom}  cell{atomic_unit}
       C -2.95273e-01 -1.10865e-01  1.05262e-02
       O  8.63024e-01  2.69069e-01 -1.23113e-01
       H -7.78608e-01  7.06452e-01 -6.35575e-01
       H -5.71168e-01 -9.88701e-01  6.50893e-01
       L  5.89028e+00  9.77421e-01 -6.29407e+00
       L  2.15700e+00  5.19614e-01 -4.14992e+00
6
# CELL(abcABC):  459.05226   459.05226   459.05226    90.00000    90.00000    90.00000  Step:          18  Bead:       0 x_centroid{angstrom}  cell{atomic_unit}
       C -2.87091e-01 -1.05640e-01  3.28485e-03
       O  8.65836e-01  2.66398e-01 -1.17515e-01
       H -8.99751e-01  6.78457e-01 -6.20807e-01
       H -5.92099e-01 -9.80627e-01  6.33536e-01
       L  5.64172e+00  1.14811e+00 -6.40307e+00
       L  2.29443e+00  4.66132e-01 -3.99919e+00
6
# CELL(abcABC):  459.05226   459.05226   459.05226    90.00000    90.00000    90.00000  Step:          19  Bead:       0 x_centroid{angstrom}  cell{atomic_unit}
       C -2.78136e-01 -9.92833e-02 -4.33354e-03
       O  8.68185e-01  2.63218e-01 -1.11741e-01
       H -1.02174e+00  6.43695e-01 -6.02274e-01
       H -6.14017e-01 -9.71221e-01  6.14011e-01
       L  5.35873e+00  1.32087e+00 -6.43016e+00
       L  2.41635e+00  4.43002e-01 -3.75469e+00
6
# CELL(abcABC):  459.05226   459.05226   459.05226    90.00000    90.00000    90.00000  Step:          20  Bead:       0 x_centroid{angstrom}  cell{atomic_unit}
       C -2.69044e-01 -9.21533e-02 -1.21765e-02
       O  8.70253e-01  2.59741e-01 -1.05826e-01
       H -1.14049e+00  6.02388e-01 -5.80060e-01
       H -6.36301e-01 -9.59788e-01  5.91182e-01
       L  5.04160e+00  1.53318e+00 -6.37747e+00
       L  2.50483e+00  4.25489e-01 -3.46934e+00
6
# CELL(abcABC):  459.05226   459.05226   459.05226    90.00000    90.00000    90.00000  Step:          21  Bead:       0 x_centroid{angstrom}  cell{atomic_unit}
       C -2.60231e-01 -8.42193e-02 -2.04795e-02
       O  8.72087e-01  2.55824e-01 -9.97018e-02
       H -1.25366e+00  5.57375e-01 -5.54084e-01
       H -6.57066e-01 -9.47240e-01  5.66688e-01
       L  4.63502e+00  1.73183e+00 -6.27590e+00
       L  2.52832e+00  4.16894e-01 -3.11623e+00
6
# CELL(abcABC):  459.05226   459.05226   459.05226    90.00000    90.00000    90.00000  Step:          22  Bead:       0 x_centroid{angstrom}  cell{atomic_unit}
       C -2.51987e-01 -7.59380e-02 -2.88792e-02
       O  8.73768e-01  2.51775e-01 -9.35859e-02
       H -1.35874e+00  5.09139e-01 -5.25627e-01
       H -6.76679e-01 -9.33522e-01  5.40906e-01
       L  4.21337e+00  1.88824e+00 -6.04636e+00
       L  2.53436e+00  4.37012e-01 -2.72442e+00
6
# CELL(abcABC):  459.05226   459.05226   459.05226    90.00000    90.00000    90.00000  Step:          23  Bead:       0 x_centroid{angstrom}  cell{atomic_unit}
       C -2.44938e-01 -6.74735e-02 -3.75029e-02
       O  8.75647e-01  2.47852e-01 -8.73823e-02
       H -1.45434e+00  4.57409e-01 -4.94935e-01
       H -6.94643e-01 -9.20473e-01  5.14101e-01
       L  3.72486e+00  2.01688e+00 -5.74549e+00
       L  2.56318e+00  4.80267e-01 -2.28939e+00
6
# CELL(abcABC):  459.05226   459.05226   459.05226    90.00000    90.00000    90.00000  Step:          24  Bead:       0 x_centroid{angstrom}  cell{atomic_unit}
       C -2.38547e-01 -5.89941e-02 -4.61965e-02
       O  8.77110e-01  2.43939e-01 -8.12304e-02
       H -1.53845e+00  4.05635e-01 -4.63015e-01
       H -7.09676e-01 -9.07723e-01  4.87640e-01
       L  3.26076e+00  2.14562e+00 -5.34915e+00
       L  2.58120e+00  5.27023e-01 -1.79658e+00
6
# CELL(abcABC):  459.05226   459.05226   459.05226    90.00000    90.00000    90.00000  Step:          25  Bead:       0 x_centroid{angstrom}  cell{atomic_unit}
       C -2.33695e-01 -5.07620e-02 -5.48366e-02
       O  8.78887e-01  2.40204e-01 -7.50647e-02
       H -1.61129e+00  3.55075e-01 -4.32556e-01
       H -7.22588e-01 -8.96087e-01  4.61768e-01
       L  2.77035e+00  2.31270e+00 -4.94129e+00
       L  2.58198e+00  5.74179e-01 -1.28831e+00
6
# CELL(abcABC):  459.05226   459.05226   459.05226    90.00000    90.00000    90.00000  Step:          26  Bead:       0 x_centroid{angstrom}  cell{atomic_unit}
       C -2.30338e-01 -4.30924e-02 -6.30277e-02
       O  8.80886e-01  2.36671e-01 -6.91024e-02
       H -1.67360e+00  3.08797e-01 -4.02613e-01
       H -7.31715e-01 -8.85226e-01  4.34342e-01
       L  2.23657e+00  2.44998e+00 -4.59029e+00
       L  2.57415e+00  6.42972e-01 -8.15936e-01
6
# CELL(abcABC):  459.05226   459.05226   459.05226    90.00000    90.00000    90.00000  Step:          27  Bead:       0 x_centroid{angstrom}  cell{atomic_unit}
       C -2.28572e-01 -3.59439e-02 -7.06888e-02
       O  8.83058e-01  2.33513e-01 -6.34727e-02
       H -1.72463e+00  2.65580e-01 -3.74728e-01
       H -7.35887e-01 -8.77160e-01  4.07879e-01
       L  1.73600e+00  2.56975e+00 -4.16947e+00
       L  2.50041e+00  6.77498e-01 -3.06166e-01
6
# CELL(abcABC):  459.05226   459.05226   459.05226    90.00000    90.00000    90.00000  Step:          28  Bead:       0 x_centroid{angstrom}  cell{atomic_unit}
       C -2.28232e-01 -2.95274e-02 -7.83312e-02
       O  8.85369e-01  2.30688e-01 -5.78035e-02
       H -1.76601e+00  2.27223e-01 -3.48846e-01
       H -7.34896e-01 -8.70467e-01  3.82543e-01
       L  1.24997e+00  2.63498e+00 -3.75534e+00
       L  2.34971e+00  7.09641e-01  2.54792e-01
6
# CELL(abcABC):  459.05226   459.05226   459.05226    90.00000    90.00000    90.00000  Step:          29  Bead:       0 x_centroid{angstrom}  cell{atomic_unit}
       C -2.29465e-01 -2.35511e-02 -8.54081e-02
       O  8.87963e-01  2.28064e-01 -5.24822e-02
       H -1.79809e+00  1.93726e-01 -3.25438e-01
       H -7.28919e-01 -8.66594e-01  3.58459e-01
       L  6.98397e-01  2.71594e+00 -3.33008e+00
       L  2.19600e+00  7.31974e-01  8.20115e-01
6
# CELL(abcABC):  459.05226   459.05226   459.05226    90.00000    90.00000    90.00000  Step:          30  Bead:       0 x_centroid{angstrom}  cell{atomic_unit}
       C -2.32101e-01 -1.80412e-02 -9.18728e-02
       O  8.90668e-01  2.25619e-01 -4.74326e-02
       H -1.82045e+00  1.65268e-01 -3.05684e-01
       H -7.17695e-01 -8.65026e-01  3.35062e-01
       L  9.73197e-02  2.81064e+00 -2.91533e+00
       L  2.07582e+00  7.32427e-01  1.36401e+00
6
# CELL(abcABC):  459.05226   459.05226   459.05226    90.00000    90.00000    90.00000  Step:          31  Bead:       0 x_centroid{angstrom}  cell{atomic_unit}
       C -2.35970e-01 -1.31761e-02 -9.77622e-02
       O  8.93500e-01  2.23639e-01 -4.27035e-02
       H -1.83484e+00  1.42922e-01 -2.90164e-01
       H -7.01727e-01 -8.69232e-01  3.14151e-01
       L -5.44849e-01  2.86885e+00 -2.47890e+00
       L  1.91339e+00  6.99215e-01  1.85133e+00
6
# CELL(abcABC):  459.05226   459.05226   459.05226    90.00000    90.00000    90.00000  Step:          32  Bead:       0 x_centroid{angstrom}  cell{atomic_unit}
       C -2.40732e-01 -9.12364e-03 -1.03328e-01
       O  8.96261e-01  2.22250e-01 -3.82016e-02
       H -1.84073e+00  1.26027e-01 -2.77914e-01
       H -6.82472e-01 -8.78574e-01  2.96216e-01
       L -1.16427e+00  2.91971e+00 -1.97117e+00
       L  1.72645e+00  6.32684e-01  2.36018e+00
6
# CELL(abcABC):  459.05226   459.05226   459.05226    90.00000    90.00000    90.00000  Step:          33  Bead:       0 x_centroid{angstrom}  cell{atomic_unit}
       C -2.46626e-01 -5.67278e-03 -1.08731e-01
       O  8.99084e-01  2.21081e-01 -3.36464e-02
       H -1.83848e+00  1.16473e-01 -2.69884e-01
       H -6.58832e-01 -8.91538e-01  2.79692e-01
       L -1.78195e+00  2.94286e+00 -1.40627e+00
       L  1.49999e+00  5.25842e-01  2.82187e+00
6
# CELL(abcABC):  459.05226   459.05226   459.05226    90.00000    90.00000    90.00000  Step:          34  Bead:       0 x_centroid{angstrom}  cell{atomic_unit}
       C -2.52916e-01 -2.91373e-03 -1.13786e-01
       O  9.01464e-01  2.20320e-01 -2.92149e-02
       H -1.82692e+00  1.13346e-01 -2.64974e-01
       H -6.32802e-01 -9.09153e-01  2.64187e-01
       L -2.35821e+00  2.92729e+00 -9.04177e-01
       L  1.26691e+00  4.38204e-01  3.22239e+00
6
# CELL(abcABC):  459.05226   459.05226   459.05226    90.00000    90.00000    90.00000  Step:          35  Bead:       0 x_centroid{angstrom}  cell{atomic_unit}
       C -2.59800e-01 -8.38085e-04 -1.18234e-01
       O  9.03673e-01  2.19862e-01 -2.50835e-02
       H -1.80710e+00  1.17317e-01 -2.64049e-01
       H -6.05234e-01 -9.30556e-01  2.50194e-01
       L -2.88079e+00  2.91212e+00 -4.30809e-01
       L  1.04165e+00  3.84646e-01  3.64540e+00
6
# CELL(abcABC):  459.05226   459.05226   459.05226    90.00000    90.00000    90.00000  Step:          36  Bead:       0 x_centroid{angstrom}  cell{atomic_unit}
       C -2.67296e-01  5.67622e-04 -1.22235e-01
       O  9.05632e-01  2.19754e-01 -2.11363e-02
       H -1.77806e+00  1.28550e-01 -2.65739e-01
       H -5.75659e-01 -9.56768e-01  2.36407e-01
       L -3.39919e+00  2.84695e+00  6.66970e-02
       L  8.34398e-01  3.48912e-01  4.06916e+00
6
# CELL(abcABC):  459.05226   459.05226   459.05226    90.00000    90.00000    90.00000  Step:          37  Bead:       0 x_centroid{angstrom}  cell{atomic_unit}
       C -2.75132e-01  1.38868e-03 -1.25678e-01
       O  9.07027e-01  2.19924e-01 -1.74739e-02
       H -1.73738e+00  1.45675e-01 -2.69010e-01
       H -5.44716e-01 -9.86329e-01  2.22106e-01
       L -3.88259e+00  2.80147e+00  5.46200e-01
       L  6.15903e-01  2.99080e-01  4.44829e+00
6
# CELL(abcABC):  459.05226   459.05226   459.05226    90.00000    90.00000    90.00000  Step:          38  Bead:       0 x_centroid{angstrom}  cell{atomic_unit}
       C -2.83435e-01  1.08915e-03 -1.28936e-01
       O  9.08024e-01  2.20629e-01 -1.38565e-02
       H -1.68614e+00  1.69908e-01 -2.74101e-01
       H -5.12495e-01 -1.01808e+00  2.08142e-01
       L -4.30950e+00  2.72768e+00  1.00887e+00
       L  3.96567e-01  2.09752e-01  4.82892e+00
6
# CELL(abcABC):  459.05226   459.05226   459.05226    90.00000    90.00000    90.00000  Step:          39  Bead:       0 x_centroid{angstrom}  cell{atomic_unit}
       C -2.92118e-01  2.78937e-05 -1.31610e-01
       O  9.08536e-01  2.21579e-01 -1.06222e-02
       H -1.62359e+00  2.00254e-01 -2.81043e-01
       H -4.79376e-01 -1.05076e+00  1.95159e-01
       L -4.70399e+00  2.60530e+00  1.48095e+00
       L  1.86127e-01  1.22881e-01  5.17745e+00
6
# CELL(abcABC):  459.05226   459.05226   459.05226    90.00000    90.00000    90.00000  Step:          40  Bead:       0 x_centroid{angstrom}  cell{atomic_unit}
       C -3.00499e-01 -1.91079e-03 -1.33708e-01
       O  9.08173e-01  2.22831e-01 -7.68685e-03
       H -1.54973e+00  2.35311e-01 -2.89192e-01
       H -4.47318e-01 -1.08247e+00  1.81297e-01
       L -4.98440e+00  2.47954e+00  1.88177e+00
       L -6.23880e-02  4.01004e-02  5.53434e+00
6
# CELL(abcABC):  459.05226   459.05226   459.05226    90.00000    90.00000    90.00000  Step:          41  Bead:       0 x_centroid{angstrom}  cell{atomic_unit}
       C -3.08365e-01 -4.67925e-03 -1.35232e-01
       O  9.06838e-01  2.24354e-01 -5.05159e-03
       H -1.46478e+00  2.74016e-01 -2.97376e-01
       H -4.17075e-01 -1.11226e+00  1.65420e-01
       L -5.21962e+00  2.38078e+00  2.26015e+00
       L -3.21530e-01 -5.95389e-02  5.88394e+00
6
# CELL(abcABC):  459.05226   459.05226   459.05226    90.00000    90.00000    90.00000  Step:          42  Bead:       0 x_centroid{angstrom}  cell{atomic_unit}
       C -3.15616e-01 -8.64875e-03 -1.36113e-01
       O  9.04668e-01  2.26290e-01 -2.73160e-03
       H -1.37202e+00  3.17435e-01 -3.06368e-01
       H -3.88782e-01 -1.13900e+00  1.47740e-01
       L -5.39720e+00  2.24462e+00  2.60936e+00
       L -5.30915e-01 -1.25919e-01  6.16460e+00
6
# CELL(abcABC):  459.05226   459.05226   459.05226    90.00000    90.00000    90.00000  Step:          43  Bead:       0 x_centroid{angstrom}  cell{atomic_unit}
       C -3.21844e-01 -1.38776e-02 -1.35986e-01
       O  9.01697e-01  2.28596e-01 -8.71058e-04
       H -1.27564e+00  3.66674e-01 -3.17158e-01
       H -3.63595e-01 -1.16240e+00  1.27183e-01
       L -5.54191e+00  2.07764e+00  2.93336e+00
       L -7.20084e-01 -2.00569e-01  6.39440e+00
6
# CELL(abcABC):  459.05226   459.05226   459.05226    90.00000    90.00000    90.00000  Step:          44  Bead:       0 x_centroid{angstrom}  cell{atomic_unit}
       C -3.26301e-01 -2.01870e-02 -1.35374e-01
       O  8.97786e-01  2.31123e-01  7.97370e-04
       H -1.18185e+00  4.21133e-01 -3.28546e-01
       H -3.42051e-01 -1.18166e+00  1.04506e-01
       L -5.64510e+00  1.88531e+00  3.29409e+00
       L -8.82295e-01 -2.39125e-01  6.57343e+00
6
# CELL(abcABC):  459.05226   459.05226   459.05226    90.00000    90.00000    90.00000  Step:          45  Bead:       0 x_centroid{angstrom}  cell{atomic_unit}
       C -3.28685e-01 -2.81376e-02 -1.34272e-01
       O  8.93143e-01  2.34030e-01  2.34138e-03
       H -1.09731e+00  4.85670e-01 -3.42465e-01
       H -3.24356e-01 -1.19751e+00  8.05637e-02
       L -5.68906e+00  1.71047e+00  3.59772e+00
       L -1.07189e+00 -2.22456e-01  6.66861e+00
6
# CELL(abcABC):  459.05226   459.05226   459.05226    90.00000    90.00000    90.00000  Step:          46  Bead:       0 x_centroid{angstrom}  cell{atomic_unit}
       C -3.28669e-01 -3.77966e-02 -1.32515e-01
       O  8.87919e-01  2.37238e-01  3.73431e-03
       H -1.02611e+00  5.59577e-01 -3.60281e-01
       H -3.12722e-01 -1.20714e+00  5.51594e-02
       L -5.68931e+00  1.54697e+00  3.90844e+00
       L -1.26757e+00 -2.38165e-01  6.67472e+00
6
# CELL(abcABC):  459.05226   459.05226   459.05226    90.00000    90.00000    90.00000  Step:          47  Bead:       0 x_centroid{angstrom}  cell{atomic_unit}
       C -3.26170e-01 -4.90242e-02 -1.30011e-01
       O  8.82085e-01  2.40446e-01  4.96342e-03
       H -9.69160e-01  6.45391e-01 -3.81599e-01
       H -3.06730e-01 -1.20999e+00  2.70238e-02
       L -5.67661e+00  1.36376e+00  4.16569e+00
       L -1.48166e+00 -2.60138e-01  6.60243e+00
6
# CELL(abcABC):  459.05226   459.05226   459.05226    90.00000    90.00000    90.00000  Step:          48  Bead:       0 x_centroid{angstrom}  cell{atomic_unit}
       C -3.21565e-01 -6.13104e-02 -1.27333e-01
       O  8.75686e-01  2.43643e-01  6.32988e-03
       H -9.21717e-01  7.38200e-01 -4.05073e-01
       H -3.07400e-01 -1.20705e+00 -3.18719e-03
       L -5.63519e+00  1.17677e+00  4.40738e+00
       L -1.66389e+00 -2.28162e-01  6.52066e+00
6
# CELL(abcABC):  459.05226   459.05226   459.05226    90.00000    90.00000    90.00000  Step:          49  Bead:       0 x_centroid{angstrom}  cell{atomic_unit}
       C -3.15160e-01 -7.39787e-02 -1.24500e-01
       O  8.68670e-01  2.46754e-01  7.62552e-03
       H -8.79841e-01  8.31719e-01 -4.28689e-01
       H -3.14210e-01 -1.19889e+00 -3.39330e-02
       L -5.58132e+00  9.40726e-01  4.59084e+00
       L -1.75916e+00 -1.89909e-01  6.41013e+00
6
# CELL(abcABC):  459.05226   459.05226   459.05226    90.00000    90.00000    90.00000  Step:          50  Bead:       0 x_centroid{angstrom}  cell{atomic_unit}
       C -3.07472e-01 -8.64913e-02 -1.21844e-01
       O  8.61224e-01  2.49805e-01  9.04721e-03
       H -8.40932e-01  9.20822e-01 -4.50801e-01
       H -3.26487e-01 -1.18718e+00 -6.60338e-02
       L -5.52695e+00  6.57501e-01  4.75906e+00
       L -1.89194e+00 -1.57814e-01  6.23674e+00
6
# CELL(abcABC):  459.05226   459.05226   459.05226    90.00000    90.00000    90.00000  Step:          51  Bead:       0 x_centroid{angstrom}  cell{atomic_unit}
       C -2.98654e-01 -9.80671e-02 -1.19835e-01
       O  8.53573e-01  2.52693e-01  1.07398e-02
       H -8.06263e-01  1.00048e+00 -4.70066e-01
       H -3.44782e-01 -1.17457e+00 -9.75335e-02
       L -5.40098e+00  3.61086e-01  4.89285e+00
       L -2.01806e+00 -1.70412e-01  6.03122e+00
6
# CELL(abcABC):  459.05226   459.05226   459.05226    90.00000    90.00000    90.00000  Step:          52  Bead:       0 x_centroid{angstrom}  cell{atomic_unit}
       C -2.89571e-01 -1.08315e-01 -1.18070e-01
       O  8.46196e-01  2.55212e-01  1.25095e-02
       H -7.74168e-01  1.06847e+00 -4.87154e-01
       H -3.68064e-01 -1.16030e+00 -1.29487e-01
       L -5.26417e+00  5.80216e-02  5.00496e+00
       L -2.07405e+00 -1.23853e-01  5.76489e+00
6
# CELL(abcABC):  459.05226   459.05226   459.05226    90.00000    90.00000    90.00000  Step:          53  Bead:       0 x_centroid{angstrom}  cell{atomic_unit}
       C -2.80194e-01 -1.17343e-01 -1.17059e-01
       O  8.39089e-01  2.57910e-01  1.45168e-02
       H -7.45080e-01  1.12349e+00 -5.00597e-01
       H -3.96125e-01 -1.15045e+00 -1.59836e-01
       L -5.14039e+00 -2.12664e-01  5.08741e+00
       L -2.11706e+00 -6.98855e-02  5.46719e+00
6
# CELL(abcABC):  459.05226   459.05226   459.05226    90.00000    90.00000    90.00000  Step:          54  Bead:       0 x_centroid{angstrom}  cell{atomic_unit}
       C -2.70559e-01 -1.24805e-01 -1.16239e-01
       O  8.32298e-01  2.60467e-01  1.64641e-02
       H -7.19854e-01  1.16709e+00 -5.11797e-01
       H -4.28437e-01 -1.14559e+00 -1.89162e-01
       L -5.00261e+00 -5.08162e-01  5.13242e+00
       L -2.10276e+00  1.77697e-03  5.14261e+00
6
# CELL(abcABC):  459.05226   459.05226   459.05226    90.00000    90.00000    90.00000  Step:          55  Bead:       0 x_centroid{angstrom}  cell{atomic_unit}
       C -2.60742e-01 -1.30218e-01 -1.16103e-01
       O  8.25981e-01  2.62543e-01  1.87276e-02
       H -6.99459e-01  1.19848e+00 -5.21043e-01
       H -4.65656e-01 -1.14534e+00 -2.17241e-01
       L -4.84993e+00 -7.66105e-01  5.11504e+00
       L -2.05646e+00  8.03968e-02  4.73577e+00
6
# CELL(abcABC):  459.05226   459.05226   459.05226    90.00000    90.00000    90.00000  Step:          56  Bead:       0 x_centroid{angstrom}  cell{atomic_unit}
       C -2.50850e-01 -1.34084e-01 -1.16674e-01
       O  8.20061e-01  2.64417e-01  2.14112e-02
       H -6.83265e-01  1.21960e+00 -5.28762e-01
       H -5.05869e-01 -1.15000e+00 -2.45057e-01
       L -4.66798e+00 -1.03080e+00  5.08423e+00
       L -2.03230e+00  1.03101e-01  4.29580e+00
6
# CELL(abcABC):  459.05226   459.05226   459.05226    90.00000    90.00000    90.00000  Step:          57  Bead:       0 x_centroid{angstrom}  cell{atomic_unit}
       C -2.41322e-01 -1.36683e-01 -1.17933e-01
       O  8.14846e-01  2.66213e-01  2.44971e-02
       H -6.70555e-01  1.22860e+00 -5.34895e-01
       H -5.49448e-01 -1.15645e+00 -2.72618e-01
       L -4.49203e+00 -1.24484e+00  5.04575e+00
       L -2.00992e+00  1.44821e-01  3.79410e+00
6
# CELL(abcABC):  459.05226   459.05226   459.05226    90.00000    90.00000    90.00000  Step:          58  Bead:       0 x_centroid{angstrom}  cell{atomic_unit}
       C -2.32385e-01 -1.38008e-01 -1.19855e-01
       O  8.10564e-01  2.67762e-01  2.78974e-02
       H -6.62757e-01  1.22690e+00 -5.39205e-01
       H -5.95892e-01 -1.16351e+00 -2.99050e-01
       L -4.26390e+00 -1.41144e+00  4.99666e+00
       L -1.98513e+00  2.25662e-01  3.24348e+00
6
# CELL(abcABC):  459.05226   459.05226   459.05226    90.00000    90.00000    90.00000  Step:          59  Bead:       0 x_centroid{angstrom}  cell{atomic_unit}
       C -2.24644e-01 -1.38179e-01 -1.22789e-01
       O  8.07576e-01  2.68966e-01  3.18589e-02
       H -6.59191e-01  1.21531e+00 -5.42269e-01
       H -6.44463e-01 -1.16895e+00 -3.23481e-01
       L -3.98354e+00 -1.56066e+00  4.84440e+00
       L -1.93767e+00  3.16847e-01  2.60499e+00
6
# CELL(abcABC):  459.05226   459.05226   459.05226    90.00000    90.00000    90.00000  Step:          60  Bead:       0 x_centroid{angstrom}  cell{atomic_unit}
       C -2.18268e-01 -1.37478e-01 -1.26372e-01
       O  8.05861e-01  2.70064e-01  3.61716e-02
       H -6.60738e-01  1.19289e+00 -5.43886e-01
       H -6.91914e-01 -1.17224e+00 -3.47111e-01
       L -3.63292e+00 -1.79695e+00  4.61228e+00
       L -1.83448e+00  3.93904e-01  1.90784e+00
6
# CELL(abcABC):  459.05226   459.05226   459.05226    90.00000    90.00000    90.00000  Step:          61  Bead:       0 x_centroid{angstrom}  cell{atomic_unit}
       C -2.13563e-01 -1.35884e-01 -1.31098e-01
       O  8.05620e-01  2.70954e-01  4.11201e-02
       H -6.67546e-01  1.16106e+00 -5.42837e-01
       H -7.37637e-01 -1.17340e+00 -3.69889e-01
       L -3.22406e+00 -2.06213e+00  4.33116e+00
       L -1.70790e+00  4.38852e-01  1.24784e+00
6
# CELL(abcABC):  459.05226   459.05226   459.05226    90.00000    90.00000    90.00000  Step:          62  Bead:       0 x_centroid{angstrom}  cell{atomic_unit}
       C -2.10701e-01 -1.33522e-01 -1.36854e-01
       O  8.06991e-01  2.71627e-01  4.65739e-02
       H -6.80827e-01  1.11982e+00 -5.39707e-01
       H -7.80537e-01 -1.17093e+00 -3.90417e-01
       L -2.79943e+00 -2.21751e+00  4.02291e+00
       L -1.56673e+00  4.99912e-01  4.91175e-01
6
# CELL(abcABC):  459.05226   459.05226   459.05226    90.00000    90.00000    90.00000  Step:          63  Bead:       0 x_centroid{angstrom}  cell{atomic_unit}
       C -2.09916e-01 -1.30352e-01 -1.43619e-01
       O  8.09819e-01  2.71970e-01  5.23765e-02
       H -6.98489e-01  1.06881e+00 -5.33731e-01
       H -8.17436e-01 -1.16310e+00 -4.07300e-01
       L -2.36948e+00 -2.34996e+00  3.73699e+00
       L -1.38641e+00  5.33173e-01 -2.99216e-01
6
# CELL(abcABC):  459.05226   459.05226   459.05226    90.00000    90.00000    90.00000  Step:          64  Bead:       0 x_centroid{angstrom}  cell{atomic_unit}
       C -2.11109e-01 -1.26597e-01 -1.51707e-01
       O  8.14069e-01  2.72150e-01  5.88950e-02
       H -7.20379e-01  1.00881e+00 -5.27375e-01
       H -8.49150e-01 -1.15072e+00 -4.20140e-01
       L -1.97039e+00 -2.38018e+00  3.38911e+00
       L -1.13926e+00  6.10804e-01 -1.06106e+00
6
# CELL(abcABC):  459.05226   459.05226   459.05226    90.00000    90.00000    90.00000  Step:          65  Bead:       0 x_centroid{angstrom}  cell{atomic_unit}
       C -2.14416e-01 -1.22045e-01 -1.60714e-01
       O  8.19796e-01  2.71834e-01  6.56893e-02
       H -7.45642e-01  9.40511e-01 -5.19072e-01
       H -8.75764e-01 -1.13166e+00 -4.28324e-01
       L -1.51896e+00 -2.44680e+00  3.01097e+00
       L -9.18009e-01  6.91034e-01 -1.87430e+00
6
# CELL(abcABC):  459.05226   459.05226   459.05226    90.00000    90.00000    90.00000  Step:          66  Bead:       0 x_centroid{angstrom}  cell{atomic_unit}
       C -2.19128e-01 -1.17126e-01 -1.70382e-01