6
# CELL(abcABC):  459.05226   459.05226   459.05226    90.00000    90.00000    90.00000  Step:           0  Bead:       0 x_centroid{angstrom}  cell{atomic_unit}
       C -3.39887e-01 -1.13437e-01  8.06659e-02
       O  8.43483e-01  2.62672e-01 -1.81512e-01
       H -7.35799e-02  8.16467e-01 -6.61432e-01
       H -4.30016e-01 -9.65701e-01  7.62278e-01
       L  0.00000e+00  0.00000e+00  0.00000e+00
       L  0.00000e+00  0.00000e+00  0.00000e+00
6
# CELL(abcABC):  459.05226   459.05226   459.05226    90.00000    90.00000    90.00000  Step:           1  Bead:       0 x_centroid{angstrom}  cell{atomic_unit}
       C -3.37649e-01 -1.10985e-01  8.30837e-02
       O  8.42097e-01  2.61130e-01 -1.82639e-01
       H -7.88844e-02  8.10278e-01 -6.72024e-01
       H -4.29540e-01 -9.64112e-01  7.61885e-01
       L -4.12700e-02  8.75960e-03 -7.44691e-02
       L  3.44678e-01 -2.74374e-01  1.79028e-01
6
# CELL(abcABC):  459.05226   459.05226   459.05226    90.00000    90.00000    90.00000  Step:           2  Bead:       0 x_centroid{angstrom}  cell{atomic_unit}
       C -3.35207e-01 -1.08336e-01  8.58164e-02
       O  8.40556e-01  2.59447e-01 -1.83920e-01
       H -8.48530e-02  8.04293e-01 -6.83732e-01
       H -4.28340e-01 -9.62864e-01  7.61347e-01
       L -1.14834e-01  4.39130e-02 -1.69761e-01
       L  6.74134e-01 -5.21780e-01  3.05900e-01
6
# CELL(abcABC):  459.05226   459.05226   459.05226    90.00000    90.00000    90.00000  Step:           3  Bead:       0 x_centroid{angstrom}  cell{atomic_unit}
       C -3.32935e-01 -1.05802e-01  8.84928e-02
       O  8.39262e-01  2.57779e-01 -1.85156e-01
       H -9.26704e-02  7.98898e-01 -6.95617e-01
       H -4.27230e-01 -9.61077e-01  7.60928e-01
       L -1.74428e-01  1.12499e-01 -2.46156e-01
       L  1.02128e+00 -7.85252e-01  4.41310e-01
6
# CELL(abcABC):  459.05226   459.05226   459.05226    90.00000    90.00000    90.00000  Step:           4  Bead:       0 x_centroid{angstrom}  cell{atomic_unit}
       C -3.30586e-01 -1.03348e-01  9.11038e-02
       O  8.38013e-01  2.56244e-01 -1.86388e-01
       H -1.01934e-01  7.92534e-01 -7.07759e-01
       H -4.26260e-01 -9.59550e-01  7.61474e-01
       L -2.19894e-01  2.66372e-01 -3.18369e-01
       L  1.31479e+00 -1.03699e+00  5.88337e-01
6
# CELL(abcABC):  459.05226   459.05226   459.05226    90.00000    90.00000    90.00000  Step:           5  Bead:       0 x_centroid{angstrom}  cell{atomic_unit}
       C -3.28073e-01 -1.00344e-01  9.34499e-02
       O  8.36868e-01  2.54514e-01 -1.87397e-01
       H -1.15068e-01  7.84494e-01 -7.19791e-01
       H -4.25065e-01 -9.59819e-01  7.61530e-01
       L -2.35540e-01  4.18912e-01 -3.96567e-01
       L  1.64263e+00 -1.23263e+00  7.28173e-01
6
# CELL(abcABC):  459.05226   459.05226   459.05226    90.00000    90.00000    90.00000  Step:           6  Bead:       0 x_centroid{angstrom}  cell{atomic_unit}
       C -3.25607e-01 -9.71115e-02  9.57814e-02
       O  8.35954e-01  2.52793e-01 -1.88558e-01
       H -1.29887e-01  7.74003e-01 -7.29355e-01
       H -4.25307e-01 -9.60510e-01  7.61700e-01
       L -2.42616e-01  5.80441e-01 -4.62129e-01
       L  1.99404e+00 -1.41655e+00  8.73292e-01
6
# CELL(abcABC):  459.05226   459.05226   459.05226    90.00000    90.00000    90.00000  Step:           7  Bead:       0 x_centroid{angstrom}  cell{atomic_unit}
       C -3.23264e-01 -9.40441e-02  9.81135e-02
       O  8.35474e-01  2.51248e-01 -1.89738e-01
       H -1.48578e-01  7.61602e-01 -7.38751e-01
       H -4.27086e-01 -9.60121e-01  7.61988e-01
       L -2.75217e-01  7.56252e-01 -5.66244e-01
       L  2.33398e+00 -1.62262e+00  1.04655e+00
6
# CELL(abcABC):  459.05226   459.05226   459.05226    90.00000    90.00000    90.00000  Step:           8  Bead:       0 x_centroid{angstrom}  cell{atomic_unit}
       C -3.20795e-01 -9.06575e-02  1.00030e-01
       O  8.35347e-01  2.49553e-01 -1.90676e-01
       H -1.72330e-01  7.47266e-01 -7.46456e-01
       H -4.30895e-01 -9.59237e-01  7.61720e-01
       L -2.81615e-01  9.55111e-01 -6.38157e-01
       L  2.63357e+00 -1.83281e+00  1.17168e+00
6
# CELL(abcABC):  459.05226   459.05226   459.05226    90.00000    90.00000    90.00000  Step:           9  Bead:       0 x_centroid{angstrom}  cell{atomic_unit}
       C -3.18231e-01 -8.68816e-02  1.01897e-01
       O  8.35635e-01  2.47704e-01 -1.91602e-01
       H -2.02475e-01  7.30724e-01 -7.54240e-01
       H -4.36029e-01 -9.58329e-01  7.61932e-01
       L -2.93383e-01  1.09705e+00 -6.64696e-01
       L  2.91644e+00 -1.99329e+00  1.26027e+00
6
# CELL(abcABC):  459.05226   459.05226   459.05226    90.00000    90.00000    90.00000  Step:          10  Bead:       0 x_centroid{angstrom}  cell{atomic_unit}
       C -3.15650e-01 -8.27207e-02  1.03377e-01
       O  8.36448e-01  2.45666e-01 -1.92265e-01
       H -2.40444e-01  7.11865e-01 -7.60481e-01
       H -4.41879e-01 -9.56700e-01  7.61014e-01
       L -3.01564e-01  1.25064e+00 -6.98949e-01
       L  3.21070e+00 -2.15373e+00  1.36590e+00
6
# CELL(abcABC):  459.05226   459.05226   459.05226    90.00000    90.00000    90.00000  Step:          11  Bead:       0 x_centroid{angstrom}  cell{atomic_unit}
       C -3.13222e-01 -7.81077e-02  1.04286e-01
       O  8.38028e-01  2.43279e-01 -1.92669e-01
       H -2.88165e-01  6.91613e-01 -7.64387e-01
       H -4.48281e-01 -9.53552e-01  7.60455e-01
       L -3.17929e-01  1.40669e+00 -7.09922e-01
       L  3.43842e+00 -2.24373e+00  1.47758e+00
6
# CELL(abcABC):  459.05226   459.05226   459.05226    90.00000    90.00000    90.00000  Step:          12  Bead:       0 x_centroid{angstrom}  cell{atomic_unit}
       C -3.10455e-01 -7.29873e-02  1.04593e-01
       O  8.40139e-01  2.40495e-01 -1.92608e-01
       H -3.46314e-01  6.69208e-01 -7.67570e-01
       H -4.56702e-01 -9.48006e-01  7.58969e-01
       L -3.53073e-01  1.54742e+00 -7.01270e-01
       L  3.63358e+00 -2.32198e+00  1.53933e+00
6
# CELL(abcABC):  459.05226   459.05226   459.05226    90.00000    90.00000    90.00000  Step:          13  Bead:       0 x_centroid{angstrom}  cell{atomic_unit}
       C -3.07415e-01 -6.75108e-02  1.04049e-01
       O  8.42978e-01  2.37507e-01 -1.92026e-01
       H -4.17251e-01  6.44881e-01 -7.68525e-01
       H -4.67115e-01 -9.41512e-01  7.57080e-01
       L -3.97305e-01  1.59719e+00 -6.55136e-01
       L  3.82101e+00 -2.37914e+00  1.63263e+00
6
# CELL(abcABC):  459.05226   459.05226   459.05226    90.00000    90.00000    90.00000  Step:          14  Bead:       0 x_centroid{angstrom}  cell{atomic_unit}
       C -3.03641e-01 -6.13680e-02  1.02631e-01
       O  8.46222e-01  2.33924e-01 -1.90896e-01
       H -5.01335e-01  6.20101e-01 -7.66681e-01
       H -4.79563e-01 -9.33008e-01  7.54172e-01
       L -4.87101e-01  1.57465e+00 -6.32946e-01
       L  4.01329e+00 -2.43680e+00  1.69325e+00
6
# CELL(abcABC):  459.05226   459.05226   459.05226    90.00000    90.00000    90.00000  Step:          15  Bead:       0 x_centroid{angstrom}  cell{atomic_unit}
       C -2.99111e-01 -5.50765e-02  1.00647e-01
       O  8.49839e-01  2.30361e-01 -1.89488e-01
       H -5.98103e-01  5.92230e-01 -7.62556e-01
       H -4.94175e-01 -9.23470e-01  7.51297e-01
       L -6.07642e-01  1.51477e+00 -6.09623e-01
       L  4.10362e+00 -2.50846e+00  1.73244e+00
6
# CELL(abcABC):  459.05226   459.05226   459.05226    90.00000    90.00000    90.00000  Step:          16  Bead:       0 x_centroid{angstrom}  cell{atomic_unit}
       C -2.93568e-01 -4.83814e-02  9.78877e-02
       O  8.53486e-01  2.26501e-01 -1.87848e-01
       H -7.05388e-01  5.61490e-01 -7.53394e-01
       H -5.10804e-01 -9.11143e-01  7.48940e-01
       L -7.17556e-01  1.43805e+00 -5.34942e-01
       L  4.15941e+00 -2.63058e+00  1.74232e+00
6
# CELL(abcABC):  459.05226   459.05226   459.05226    90.00000    90.00000    90.00000  Step:          17  Bead:       0 x_centroid{angstrom}  cell{atomic_unit}
       C -2.87317e-01 -4.12900e-02  9.43812e-02
       O  8.57275e-01  2.22316e-01 -1.85884e-01
       H -8.20428e-01  5.27229e-01 -7.40497e-01
       H -5.30366e-01 -8.94823e-01  7.46562e-01
       L -8.05714e-01  1.33447e+00 -4.13440e-01
       L  4.20821e+00 -2.76704e+00  1.77307e+00
6
# CELL(abcABC):  459.05226   459.05226   459.05226    90.00000    90.00000    90.00000  Step:          18  Bead:       0 x_centroid{angstrom}  cell{atomic_unit}
       C -2.80393e-01 -3.38592e-02  9.01376e-02
       O  8.60891e-01  2.17910e-01 -1.83851e-01
       H -9.39006e-01  4.89963e-01 -7.21198e-01
       H -5.51641e-01 -8.76044e-01  7.45463e-01
       L -9.40199e-01  1.22768e+00 -2.76017e-01
       L  4.23724e+00 -2.87308e+00  1.80792e+00
6
# CELL(abcABC):  459.05226   459.05226   459.05226    90.00000    90.00000    90.00000  Step:          19  Bead:       0 x_centroid{angstrom}  cell{atomic_unit}
       C -2.73448e-01 -2.63666e-02  8.48979e-02
       O  8.64521e-01  2.13340e-01 -1.81650e-01
       H -1.05691e+00  4.51003e-01 -6.94417e-01
       H -5.73986e-01 -8.53717e-01  7.46103e-01
       L -1.15941e+00  1.14161e+00 -1.23250e-01
       L  4.21317e+00 -2.98554e+00  1.80318e+00
6
# CELL(abcABC):  459.05226   459.05226   459.05226    90.00000    90.00000    90.00000  Step:          20  Bead:       0 x_centroid{angstrom}  cell{atomic_unit}
       C -2.66787e-01 -1.88503e-02  7.89604e-02
       O  8.68122e-01  2.08886e-01 -1.79295e-01
       H -1.17134e+00  4.08719e-01 -6.62048e-01
       H -5.95929e-01 -8.30190e-01  7.47089e-01
       L -1.38075e+00  1.01067e+00  2.06004e-02
       L  4.14648e+00 -3.05765e+00  1.69571e+00
6
# CELL(abcABC):  459.05226   459.05226   459.05226    90.00000    90.00000    90.00000  Step:          21  Bead:       0 x_centroid{angstrom}  cell{atomic_unit}
       C -2.60655e-01 -1.11982e-02  7.24240e-02
       O  8.71679e-01  2.04404e-01 -1.76860e-01
       H -1.28014e+00  3.64383e-01 -6.24666e-01
       H -6.16509e-01 -8.05805e-01  7.48904e-01
       L -1.58762e+00  9.07311e-01  1.92827e-01
       L  4.07417e+00 -3.11531e+00  1.57590e+00
6
# CELL(abcABC):  459.05226   459.05226   459.05226    90.00000    90.00000    90.00000  Step:          22  Bead:       0 x_centroid{angstrom}  cell{atomic_unit}
       C -2.55098e-01 -3.53178e-03  6.53770e-02
       O  8.75018e-01  1.99907e-01 -1.74421e-01
       H -1.38019e+00  3.18961e-01 -5.82324e-01
       H -6.35491e-01 -7.80245e-01  7.51811e-01
       L -1.79588e+00  8.07147e-01  3.41972e-01
       L  3.94956e+00 -3.20355e+00  1.45534e+00
6
# CELL(abcABC):  459.05226   459.05226   459.05226    90.00000    90.00000    90.00000  Step:          23  Bead:       0 x_centroid{angstrom}  cell{atomic_unit}
       C -2.50411e-01  3.82681e-03  5.79840e-02
       O  8.78197e-01  1.95582e-01 -1.72035e-01
       H -1.46943e+00  2.73838e-01 -5.36416e-01
       H -6.52397e-01 -7.54086e-01  7.56139e-01
       L -1.98845e+00  7.29010e-01  4.21434e-01
       L  3.81564e+00 -3.25745e+00  1.35541e+00
6
# CELL(abcABC):  459.05226   459.05226   459.05226    90.00000    90.00000    90.00000  Step:          24  Bead:       0 x_centroid{angstrom}  cell{atomic_unit}
       C -2.46800e-01  1.06399e-02  4.99411e-02
       O  8.81330e-01  1.91524e-01 -1.69448e-01
       H -1.54898e+00  2.30311e-01 -4.88533e-01
       H -6.65413e-01 -7.27283e-01  7.63059e-01
       L -2.16174e+00  6.59617e-01  4.92855e-01
       L  3.64504e+00 -3.27672e+00  1.21931e+00
6
# CELL(abcABC):  459.05226   459.05226   459.05226    90.00000    90.00000    90.00000  Step:          25  Bead:       0 x_centroid{angstrom}  cell{atomic_unit}
       C -2.44545e-01  1.69082e-02  4.19584e-02
       O  8.84602e-01  1.87661e-01 -1.67064e-01
       H -1.61679e+00  1.89140e-01 -4.39062e-01
       H -6.76232e-01 -6.99477e-01  7.70892e-01
       L -2.28473e+00  6.11553e-01  6.15375e-01
       L  3.44695e+00 -3.24283e+00  1.05243e+00
6
# CELL(abcABC):  459.05226   459.05226   459.05226    90.00000    90.00000    90.00000  Step:          26  Bead:       0 x_centroid{angstrom}  cell{atomic_unit}
       C -2.43444e-01  2.25386e-02  3.39453e-02
       O  8.87753e-01  1.84182e-01 -1.64690e-01
       H -1.67296e+00  1.48883e-01 -3.89991e-01
       H -6.83065e-01 -6.71091e-01  7.79642e-01
       L -2.38106e+00  5.63999e-01  7.52201e-01
       L  3.29623e+00 -3.18307e+00  8.77488e-01
6
# CELL(abcABC):  459.05226   459.05226   459.05226    90.00000    90.00000    90.00000  Step:          27  Bead:       0 x_centroid{angstrom}  cell{atomic_unit}
       C -2.43457e-01  2.74326e-02  2.60455e-02
       O  8.90871e-01  1.80805e-01 -1.62337e-01
       H -1.72046e+00  1.14125e-01 -3.42930e-01
       H -6.84769e-01 -6.41132e-01  7.89452e-01
       L -2.43117e+00  5.87854e-01  8.63947e-01
       L  3.08586e+00 -3.05597e+00  6.28232e-01
6
# CELL(abcABC):  459.05226   459.05226   459.05226    90.00000    90.00000    90.00000  Step:          28  Bead:       0 x_centroid{angstrom}  cell{atomic_unit}
       C -2.44531e-01  3.16743e-02  1.86737e-02
       O  8.93799e-01  1.77535e-01 -1.60280e-01
       H -1.75828e+00  8.42009e-02 -2.98955e-01
       H -6.80486e-01 -6.09973e-01  8.00753e-01
       L -2.45600e+00  5.93732e-01  9.56409e-01
       L  2.85281e+00 -2.82655e+00  3.83009e-01
6
# CELL(abcABC):  459.05226   459.05226   459.05226    90.00000    90.00000    90.00000  Step:          29  Bead:       0 x_centroid{angstrom}  cell{atomic_unit}
       C -2.46757e-01  3.51756e-02  1.19622e-02
       O  8.96581e-01  1.74518e-01 -1.58614e-01
       H -1.78585e+00  5.96147e-02 -2.58421e-01
       H -6.70424e-01 -5.79418e-01  8.13863e-01
       L -2.45718e+00  6.26251e-01  1.03025e+00
       L  2.62825e+00 -2.50915e+00  8.82065e-02
6
# CELL(abcABC):  459.05226   459.05226   459.05226    90.00000    90.00000    90.00000  Step:          30  Bead:       0 x_centroid{angstrom}  cell{atomic_unit}
       C -2.50143e-01  3.79620e-02  5.88873e-03
       O  8.99281e-01  1.71658e-01 -1.57128e-01
       H -1.80320e+00  3.99791e-02 -2.23742e-01
       H -6.55460e-01 -5.47782e-01  8.28101e-01
       L -2.40745e+00  6.55879e-01  1.04537e+00
       L  2.35641e+00 -2.16731e+00 -1.83417e-01
6
# CELL(abcABC):  459.05226   459.05226   459.05226    90.00000    90.00000    90.00000  Step:          31  Bead:       0 x_centroid{angstrom}  cell{atomic_unit}
       C -2.54219e-01  3.99852e-02  6.66551e-04
       O  9.01679e-01  1.69093e-01 -1.55955e-01
       H -1.81148e+00  2.53355e-02 -1.94259e-01
       H -6.36581e-01 -5.16812e-01  8.42348e-01
       L -2.31739e+00  7.12511e-01  1.05222e+00
       L  2.08965e+00 -1.71139e+00 -4.04635e-01
6
# CELL(abcABC):  459.05226   459.05226   459.05226    90.00000    90.00000    90.00000  Step:          32  Bead:       0 x_centroid{angstrom}  cell{atomic_unit}
       C -2.58985e-01  4.18195e-02 -3.88111e-03
       O  9.03809e-01  1.66447e-01 -1.55100e-01
       H -1.81090e+00  1.57650e-02 -1.70296e-01
       H -6.14113e-01 -4.87370e-01  8.59100e-01
       L -2.18746e+00  7.75506e-01  1.06484e+00
       L  1.82298e+00 -1.26751e+00 -5.80703e-01
6
# CELL(abcABC):  459.05226   459.05226   459.05226    90.00000    90.00000    90.00000  Step:          33  Bead:       0 x_centroid{angstrom}  cell{atomic_unit}
       C -2.64582e-01  4.30482e-02 -7.37824e-03
       O  9.05718e-01  1.63943e-01 -1.54832e-01
       H -1.80008e+00  1.06396e-02 -1.51966e-01
       H -5.88496e-01 -4.57438e-01  8.78255e-01
       L -2.00697e+00  8.51858e-01  1.07126e+00
       L  1.57878e+00 -8.09658e-01 -7.29760e-01
6
# CELL(abcABC):  459.05226   459.05226   459.05226    90.00000    90.00000    90.00000  Step:          34  Bead:       0 x_centroid{angstrom}  cell{atomic_unit}
       C -2.70678e-01  4.37437e-02 -1.02895e-02
       O  9.07287e-01  1.61649e-01 -1.54721e-01
       H -1.78068e+00  9.67353e-03 -1.41304e-01
       H -5.60128e-01 -4.28623e-01  9.00573e-01
       L -1.82157e+00  9.32903e-01  1.07954e+00
       L  1.33764e+00 -3.83921e-01 -8.38323e-01
6
# CELL(abcABC):  459.05226   459.05226   459.05226    90.00000    90.00000    90.00000  Step:          35  Bead:       0 x_centroid{angstrom}  cell{atomic_unit}
       C -2.77278e-01  4.36292e-02 -1.23538e-02
       O  9.08577e-01  1.59704e-01 -1.55040e-01
       H -1.75200e+00  1.42095e-02 -1.35231e-01
       H -5.30630e-01 -4.01191e-01  9.24209e-01
       L -1.59264e+00  1.01235e+00  1.11255e+00
       L  1.08928e+00  4.40538e-02 -9.34502e-01
6
# CELL(abcABC):  459.05226   459.05226   459.05226    90.00000    90.00000    90.00000  Step:          36  Bead:       0 x_centroid{angstrom}  cell{atomic_unit}
       C -2.84644e-01  4.28711e-02 -1.32494e-02
       O  9.09799e-01  1.58088e-01 -1.55993e-01
       H -1.71495e+00  2.14339e-02 -1.36024e-01
       H -4.99270e-01 -3.73999e-01  9.50841e-01
       L -1.36745e+00  1.08106e+00  1.12404e+00
       L  8.14150e-01  4.51163e-01 -1.04137e+00
6
# CELL(abcABC):  459.05226   459.05226   459.05226    90.00000    90.00000    90.00000  Step:          37  Bead:       0 x_centroid{angstrom}  cell{atomic_unit}
       C -2.92310e-01  4.18235e-02 -1.29679e-02
       O  9.10567e-01  1.56535e-01 -1.57444e-01
       H -1.66675e+00  3.28557e-02 -1.44471e-01
       H -4.68266e-01 -3.48484e-01  9.79048e-01
       L -1.15433e+00  1.13099e+00  1.08947e+00
       L  5.15212e-01  7.88345e-01 -1.14210e+00
6
# CELL(abcABC):  459.05226   459.05226   459.05226    90.00000    90.00000    90.00000  Step:          38  Bead:       0 x_centroid{angstrom}  cell{atomic_unit}
       C -2.99901e-01  4.01866e-02 -1.17823e-02
       O  9.10645e-01  1.55299e-01 -1.59238e-01
       H -1.60809e+00  4.72958e-02 -1.59556e-01
       H -4.37684e-01 -3.23983e-01  1.00856e+00
       L -8.96791e-01  1.17201e+00  1.02169e+00
       L  2.13762e-01  1.07688e+00 -1.22397e+00
6
# CELL(abcABC):  459.05226   459.05226   459.05226    90.00000    90.00000    90.00000  Step:          39  Bead:       0 x_centroid{angstrom}  cell{atomic_unit}
       C -3.07208e-01  3.80033e-02 -9.22910e-03
       O  9.09881e-01  1.54448e-01 -1.61617e-01
       H -1.53937e+00  6.41697e-02 -1.82137e-01
       H -4.07217e-01 -3.01495e-01  1.03861e+00
       L -5.48997e-01  1.16574e+00  9.06778e-01
       L -1.44256e-01  1.36730e+00 -1.32564e+00
6
# CELL(abcABC):  459.05226   459.05226   459.05226    90.00000    90.00000    90.00000  Step:          40  Bead:       0 x_centroid{angstrom}  cell{atomic_unit}
       C -3.14328e-01  3.53682e-02 -5.59810e-03
       O  9.08421e-01  1.53818e-01 -1.64465e-01
       H -1.46114e+00  8.42065e-02 -2.10353e-01
       H -3.77456e-01 -2.80235e-01  1.06892e+00
       L -2.08801e-01  1.09649e+00  7.25575e-01
       L -4.39840e-01  1.63970e+00 -1.42627e+00
6
# CELL(abcABC):  459.05226   459.05226   459.05226    90.00000    90.00000    90.00000  Step:          41  Bead:       0 x_centroid{angstrom}  cell{atomic_unit}
       C -3.20730e-01  3.26665e-02 -7.38829e-04
       O  9.06155e-01  1.53205e-01 -1.67688e-01
       H -1.37688e+00  1.05243e-01 -2.44769e-01
       H -3.49449e-01 -2.59468e-01  1.09673e+00
       L  7.04798e-02  1.03137e+00  5.28349e-01
       L -7.33719e-01  1.93093e+00 -1.48799e+00
6
# CELL(abcABC):  459.05226   459.05226   459.05226    90.00000    90.00000    90.00000  Step:          42  Bead:       0 x_centroid{angstrom}  cell{atomic_unit}
       C -3.26097e-01  2.97093e-02  5.52912e-03
       O  9.03323e-01  1.52631e-01 -1.71457e-01
       H -1.29161e+00  1.29220e-01 -2.86174e-01
       H -3.25778e-01 -2.39213e-01  1.12343e+00
       L  3.26572e-01  9.34925e-01  3.01272e-01
       L -1.04054e+00  2.22916e+00 -1.54267e+00
6
# CELL(abcABC):  459.05226   459.05226   459.05226    90.00000    90.00000    90.00000  Step:          43  Bead:       0 x_centroid{angstrom}  cell{atomic_unit}
       C -3.29901e-01  2.64606e-02  1.31717e-02
       O  8.99891e-01  1.52179e-01 -1.75516e-01
       H -1.21100e+00  1.54708e-01 -3.34878e-01
       H -3.06537e-01 -2.18918e-01  1.14566e+00
       L  5.15940e-01  8.82147e-01  6.11518e-02
       L -1.31764e+00  2.49447e+00 -1.63134e+00
6
# CELL(abcABC):  459.05226   459.05226   459.05226    90.00000    90.00000    90.00000  Step:          44  Bead:       0 x_centroid{angstrom}  cell{atomic_unit}
       C -3.31106e-01  2.28998e-02  2.22432e-02
       O  8.95753e-01  1.51777e-01 -1.79669e-01
       H -1.14441e+00  1.83292e-01 -3.94768e-01
       H -2.93019e-01 -1.98800e-01  1.16355e+00
       L  6.62736e-01  8.18861e-01 -2.07673e-01
       L -1.57203e+00  2.75210e+00 -1.67518e+00
6
# CELL(abcABC):  459.05226   459.05226   459.05226    90.00000    90.00000    90.00000  Step:          45  Bead:       0 x_centroid{angstrom}  cell{atomic_unit}
       C -3.29309e-01  1.91101e-02  3.32949e-02
       O  8.90880e-01  1.51363e-01 -1.84208e-01
       H -1.09518e+00  2.15344e-01 -4.67325e-01
       H -2.86236e-01 -1.79233e-01  1.17662e+00
       L  7.77728e-01  7.54680e-01 -4.41660e-01
       L -1.81819e+00  3.01368e+00 -1.72793e+00
6
# CELL(abcABC):  459.05226   459.05226   459.05226    90.00000    90.00000    90.00000  Step:          46  Bead:       0 x_centroid{angstrom}  cell{atomic_unit}
       C -3.24556e-01  1.51453e-02  4.62654e-02
       O  8.85194e-01  1.50838e-01 -1.89058e-01
       H -1.06144e+00  2.51583e-01 -5.52281e-01
       H -2.86266e-01 -1.60027e-01  1.18416e+00
       L  8.73214e-01  6.80821e-01 -7.05979e-01
       L -2.11582e+00  3.32667e+00 -1.74800e+00
6
# CELL(abcABC):  459.05226   459.05226   459.05226    90.00000    90.00000    90.00000  Step:          47  Bead:       0 x_centroid{angstrom}  cell{atomic_unit}
       C -3.17525e-01  1.12310e-02  6.04324e-02
       O  8.78833e-01  1.50218e-01 -1.94041e-01
       H -1.03788e+00  2.89455e-01 -6.44433e-01
       H -2.92480e-01 -1.41510e-01  1.18673e+00
       L  9.24932e-01  5.78145e-01 -9.79108e-01
       L -2.45092e+00  3.60297e+00 -1.74780e+00
6
# CELL(abcABC):  459.05226   459.05226   459.05226    90.00000    90.00000    90.00000  Step:          48  Bead:       0 x_centroid{angstrom}  cell{atomic_unit}
       C -3.09208e-01  7.70451e-03  7.53016e-02
       O  8.72084e-01  1.49439e-01 -1.99255e-01
       H -1.01823e+00  3.26447e-01 -7.37158e-01
       H -3.03903e-01 -1.24218e-01  1.18518e+00
       L  9.06481e-01  5.01563e-01 -1.23719e+00
       L -2.78868e+00  3.86998e+00 -1.72589e+00
6
# CELL(abcABC):  459.05226   459.05226   459.05226    90.00000    90.00000    90.00000  Step:          49  Bead:       0 x_centroid{angstrom}  cell{atomic_unit}
       C -3.00053e-01  4.83907e-03  8.98037e-02
       O  8.65121e-01  1.48477e-01 -2.04373e-01
       H -9.98705e-01  3.60493e-01 -8.24149e-01
       H -3.21840e-01 -1.08927e-01  1.18072e+00
       L  8.96367e-01  4.48220e-01 -1.52241e+00
       L -3.06750e+00  4.07797e+00 -1.66726e+00
6
# CELL(abcABC):  459.05226   459.05226   459.05226    90.00000    90.00000    90.00000  Step:          50  Bead:       0 x_centroid{angstrom}  cell{atomic_unit}
       C -2.90456e-01  2.36218e-03  1.03349e-01
       O  8.58189e-01  1.47534e-01 -2.09276e-01
       H -9.79178e-01  3.90655e-01 -9.02213e-01
       H -3.45536e-01 -9.46643e-02  1.17529e+00
       L  8.83756e-01  3.81511e-01 -1.75654e+00
       L -3.32658e+00  4.25075e+00 -1.61579e+00
6
# CELL(abcABC):  459.05226   459.05226   459.05226    90.00000    90.00000    90.00000  Step:          51  Bead:       0 x_centroid{angstrom}  cell{atomic_unit}
       C -2.80435e-01  3.99037e-04  1.15681e-01
       O  8.51160e-01  1.46525e-01 -2.13966e-01
       H -9.58463e-01  4.16604e-01 -9.70037e-01
       H -3.73947e-01 -8.12179e-02  1.17072e+00
       L  9.00232e-01  3.09117e-01 -1.99796e+00
       L -3.60015e+00  4.35402e+00 -1.54738e+00
6
# CELL(abcABC):  459.05226   459.05226   459.05226    90.00000    90.00000    90.00000  Step:          52  Bead:       0 x_centroid{angstrom}  cell{atomic_unit}
       C -2.70157e-01 -7.78717e-04  1.26881e-01
       O  8.44347e-01  1.45393e-01 -2.18643e-01
       H -9.37521e-01  4.36683e-01 -1.02610e+00
       H -4.09108e-01 -6.92339e-02  1.16764e+00
       L  9.60898e-01  1.84612e-01 -2.24828e+00
       L -3.87933e+00  4.37183e+00 -1.42859e+00
6
# CELL(abcABC):  459.05226   459.05226   459.05226    90.00000    90.00000    90.00000  Step:          53  Bead:       0 x_centroid{angstrom}  cell{atomic_unit}
       C -2.60110e-01 -1.06153e-03  1.36814e-01
       O  8.38015e-01  1.43954e-01 -2.23355e-01
       H -9.17538e-01  4.51840e-01 -1.06976e+00
       H -4.48208e-01 -5.81035e-02  1.16772e+00
       L  1.03586e+00  9.11621e-02 -2.47382e+00
       L -4.12906e+00  4.30685e+00 -1.19315e+00
6
# CELL(abcABC):  459.05226   459.05226   459.05226    90.00000    90.00000    90.00000  Step:          54  Bead:       0 x_centroid{angstrom}  cell{atomic_unit}
       C -2.50380e-01 -7.12563e-04  1.45478e-01
       O  8.32232e-01  1.42478e-01 -2.28097e-01
       H -8.98001e-01  4.62478e-01 -1.10066e+00
       H -4.91823e-01 -4.93204e-02  1.17061e+00
       L  1.08853e+00 -4.20488e-02 -2.64879e+00
       L -4.29639e+00  4.17587e+00 -9.25964e-01
6
# CELL(abcABC):  459.05226   459.05226   459.05226    90.00000    90.00000    90.00000  Step:          55  Bead:       0 x_centroid{angstrom}  cell{atomic_unit}
       C -2.40988e-01  3.35207e-04  1.52869e-01
       O  8.27035e-01  1.40730e-01 -2.32746e-01
       H -8.79260e-01  4.69475e-01 -1.11898e+00
       H -5.39930e-01 -4.08700e-02  1.17459e+00
       L  1.13557e+00 -1.98702e-01 -2.78329e+00
       L -4.43931e+00  4.00098e+00 -6.88542e-01
6
# CELL(abcABC):  459.05226   459.05226   459.05226    90.00000    90.00000    90.00000  Step:          56  Bead:       0 x_centroid{angstrom}  cell{atomic_unit}
       C -2.32217e-01  1.83109e-03  1.59131e-01
       O  8.22564e-01  1.39088e-01 -2.37338e-01
       H -8.63436e-01  4.71467e-01 -1.12523e+00
       H -5.89267e-01 -3.43862e-02  1.17906e+00
       L  1.21554e+00 -3.61300e-01 -2.90770e+00
       L -4.59838e+00  3.70764e+00 -4.45452e-01
6
# CELL(abcABC):  459.05226   459.05226   459.05226    90.00000    90.00000    90.00000  Step:          57  Bead:       0 x_centroid{angstrom}  cell{atomic_unit}
       C -2.24339e-01  4.45166e-03  1.64341e-01
       O  8.18908e-01  1.37029e-01 -2.41966e-01
       H -8.50496e-01  4.67760e-01 -1.11940e+00
       H -6.38016e-01 -2.89146e-02  1.18454e+00
       L  1.28939e+00 -5.70931e-01 -3.02385e+00
       L -4.70944e+00  3.34864e+00 -2.16121e-01
6
# CELL(abcABC):  459.05226   459.05226   459.05226    90.00000    90.00000    90.00000  Step:          58  Bead:       0 x_centroid{angstrom}  cell{atomic_unit}
       C -2.17591e-01  7.81186e-03  1.68664e-01
       O  8.16246e-01  1.34861e-01 -2.46435e-01
       H -8.41361e-01  4.59172e-01 -1.10352e+00
       H -6.85334e-01 -2.55957e-02  1.18803e+00
       L  1.33936e+00 -7.78041e-01 -3.16966e+00
       L -4.73600e+00  2.91043e+00 -3.70774e-03
6
# CELL(abcABC):  459.05226   459.05226   459.05226    90.00000    90.00000    90.00000  Step:          59  Bead:       0 x_centroid{angstrom}  cell{atomic_unit}
       C -2.12580e-01  1.15323e-02  1.72254e-01
       O  8.14913e-01  1.32732e-01 -2.50735e-01
       H -8.35661e-01  4.46666e-01 -1.07794e+00
       H -7.29683e-01 -2.32319e-02  1.18784e+00
       L  1.40124e+00 -9.99622e-01 -3.21469e+00
       L -4.62971e+00  2.41724e+00  2.08148e-01
6
# CELL(abcABC):  459.05226   459.05226   459.05226    90.00000    90.00000    90.00000  Step:          60  Bead:       0 x_centroid{angstrom}  cell{atomic_unit}
       C -2.09575e-01  1.61648e-02  1.74890e-01
       O  8.15118e-01  1.30278e-01 -2.54688e-01
       H -8.34136e-01  4.29207e-01 -1.04317e+00
       H -7.70357e-01 -2.15966e-02  1.18431e+00
       L  1.39842e+00 -1.26407e+00 -3.26031e+00
       L -4.45665e+00  1.88755e+00  4.46135e-01
6
# CELL(abcABC):  459.05226   459.05226   459.05226    90.00000    90.00000    90.00000  Step:          61  Bead:       0 x_centroid{angstrom}  cell{atomic_unit}
       C -2.08300e-01  2.16244e-02  1.76719e-01
       O  8.16500e-01  1.27503e-01 -2.58465e-01
       H -8.35649e-01  4.07894e-01 -9.97662e-01
       H -8.06108e-01 -2.08581e-02  1.17689e+00
       L  1.40730e+00 -1.50950e+00 -3.28611e+00
       L -4.21289e+00  1.32478e+00  6.20607e-01
6
# CELL(abcABC):  459.05226   459.05226   459.05226    90.00000    90.00000    90.00000  Step:          62  Bead:       0 x_centroid{angstrom}  cell{atomic_unit}
       C -2.08993e-01  2.78232e-02  1.77937e-01
       O  8.19358e-01  1.24512e-01 -2.61962e-01
       H -8.41067e-01  3.81921e-01 -9.44582e-01
       H -8.37908e-01 -2.08754e-02  1.16467e+00
       L  1.36071e+00 -1.69563e+00 -3.23873e+00
       L -3.96412e+00  7.77098e-01  7.97993e-01
6
# CELL(abcABC):  459.05226   459.05226   459.05226    90.00000    90.00000    90.00000  Step:          63  Bead:       0 x_centroid{angstrom}  cell{atomic_unit}
       C -2.11559e-01  3.46191e-02  1.78691e-01
       O  8.23397e-01  1.21310e-01 -2.65423e-01
       H -8.49408e-01  3.52781e-01 -8.83553e-01
       H -8.63252e-01 -2.14995e-02  1.14946e+00
       L  1.32644e+00 -1.84561e+00 -3.17145e+00
       L -3.66110e+00  2.30152e-01  9.75829e-01
6
# CELL(abcABC):  459.05226   459.05226   459.05226    90.00000    90.00000    90.00000  Step:          64  Bead:       0 x_centroid{angstrom}  cell{atomic_unit}
       C -2.16143e-01  4.18679e-02  1.78534e-01
       O  8.28868e-01  1.18018e-01 -2.68558e-01
       H -8.62548e-01  3.20093e-01 -8.14847e-01
       H -8.82507e-01 -2.25798e-02  1.13226e+00
       L  1.30417e+00 -1.98933e+00 -3.07905e+00
       L -3.31102e+00 -2.84666e-01  1.11456e+00
6
# CELL(abcABC):  459.05226   459.05226   459.05226    90.00000    90.00000    90.00000  Step:          65  Bead:       0 x_centroid{angstrom}  cell{atomic_unit}
       C -2.22322e-01  4.94928e-02  1.77586e-01
       O  8.35286e-01  1.14592e-01 -2.71351e-01
       H -8.78104e-01  2.86385e-01 -7.38618e-01
       H -8.95438e-01 -2.50119e-02  1.11152e+00
       L  1.29760e+00 -2.16459e+00 -2.92577e+00
       L -2.88343e+00 -7.22118e-01  1.22614e+00
6
# CELL(abcABC):  459.05226   459.05226   459.05226    90.00000    90.00000    90.00000  Step:          66  Bead:       0 x_centroid{angstrom}  cell{atomic_unit}
       C -2.30065e-01  5.76823e-02  1.75889e-01