6
# CELL(abcABC):  459.05226   459.05226   459.05226    90.00000    90.00000    90.00000  Step:           0  Bead:       0 x_centroid{angstrom}  cell{atomic_unit}
       C -3.39887e-01 -1.13437e-01  8.06659e-02
       O  8.43483e-01  2.62672e-01 -1.81512e-01
       H -7.35799e-02  8.16467e-01 -6.61432e-01
       H -4.30016e-01 -9.65701e-01  7.62278e-01
       L  0.00000e+00  0.00000e+00  0.00000e+00
       L  0.00000e+00  0.00000e+00  0.00000e+00
6
# CELL(abcABC):  459.05226   459.05226   459.05226    90.00000    90.00000    90.00000  Step:           1  Bead:       0 x_centroid{angstrom}  cell{atomic_unit}
       C -3.40936e-01 -1.15200e-01  7.99083e-02
       O  8.44648e-01  2.63518e-01 -1.80874e-01
       H -7.68349e-02  8.13192e-01 -6.61652e-01
       H -4.32853e-01 -9.54511e-01  7.61776e-01
       L -1.04058e-02 -2.40083e-01 -2.99503e-01
       L  1.95891e-01 -4.04571e-01 -4.07843e-01
6
# CELL(abcABC):  459.05226   459.05226   459.05226    90.00000    90.00000    90.00000  Step:           2  Bead:       0 x_centroid{angstrom}  cell{atomic_unit}
       C -3.41856e-01 -1.16890e-01  7.88049e-02
       O  8.45782e-01  2.64305e-01 -1.80060e-01
       H -8.06527e-02  8.10152e-01 -6.61740e-01
       H -4.36157e-01 -9.43473e-01  7.62469e-01
       L -1.24436e-02 -5.03417e-01 -6.04399e-01
       L  3.73204e-01 -7.96170e-01 -7.97620e-01
6
# CELL(abcABC):  459.05226   459.05226   459.05226    90.00000    90.00000    90.00000  Step:           3  Bead:       0 x_centroid{angstrom}  cell{atomic_unit}
       C -3.42702e-01 -1.18583e-01  7.77803e-02
       O  8.46874e-01  2.65180e-01 -1.79339e-01
       H -8.45200e-02  8.06782e-01 -6.61572e-01
       H -4.39675e-01 -9.33447e-01  7.63456e-01
       L  2.78212e-02 -7.63935e-01 -9.56861e-01
       L  5.65760e-01 -1.21236e+00 -1.14689e+00
6
# CELL(abcABC):  459.05226   459.05226   459.05226    90.00000    90.00000    90.00000  Step:           4  Bead:       0 x_centroid{angstrom}  cell{atomic_unit}
       C -3.43653e-01 -1.20300e-01  7.65945e-02
       O  8.48207e-01  2.66035e-01 -1.78449e-01
       H -9.02749e-02  8.04260e-01 -6.62621e-01
       H -4.43853e-01 -9.23701e-01  7.64842e-01
       L  6.70073e-02 -1.00075e+00 -1.29057e+00
       L  7.24185e-01 -1.57071e+00 -1.42817e+00
6
# CELL(abcABC):  459.05226   459.05226   459.05226    90.00000    90.00000    90.00000  Step:           5  Bead:       0 x_centroid{angstrom}  cell{atomic_unit}
       C -3.44444e-01 -1.21561e-01  7.51082e-02
       O  8.49537e-01  2.66820e-01 -1.77513e-01
       H -9.64618e-02  8.00817e-01 -6.64249e-01
       H -4.49445e-01 -9.17398e-01  7.69626e-01
       L  8.79103e-02 -1.22011e+00 -1.60946e+00
       L  8.56751e-01 -1.89639e+00 -1.68392e+00
6
# CELL(abcABC):  459.05226   459.05226   459.05226    90.00000    90.00000    90.00000  Step:           6  Bead:       0 x_centroid{angstrom}  cell{atomic_unit}
       C -3.44985e-01 -1.22536e-01  7.34789e-02
       O  8.50766e-01  2.67588e-01 -1.76460e-01
       H -1.04508e-01  7.96161e-01 -6.67117e-01
       H -4.54544e-01 -9.13028e-01  7.75525e-01
       L  1.24927e-01 -1.46895e+00 -1.95305e+00
       L  9.87050e-01 -2.17302e+00 -1.94441e+00
6
# CELL(abcABC):  459.05226   459.05226   459.05226    90.00000    90.00000    90.00000  Step:           7  Bead:       0 x_centroid{angstrom}  cell{atomic_unit}
       C -3.44777e-01 -1.23313e-01  7.16719e-02
       O  8.51632e-01  2.68328e-01 -1.75365e-01
       H -1.14719e-01  7.90456e-01 -6.71226e-01
       H -4.60620e-01 -9.09501e-01  7.84035e-01
       L  1.22656e-01 -1.74488e+00 -2.23184e+00
       L  1.09920e+00 -2.45000e+00 -2.12251e+00
6
# CELL(abcABC):  459.05226   459.05226   459.05226    90.00000    90.00000    90.00000  Step:           8  Bead:       0 x_centroid{angstrom}  cell{atomic_unit}
       C -3.44200e-01 -1.23685e-01  6.95305e-02
       O  8.52449e-01  2.68807e-01 -1.74167e-01
       H -1.27683e-01  7.84832e-01 -6.75195e-01
       H -4.67549e-01 -9.06805e-01  7.94713e-01
       L  1.21716e-01 -2.00446e+00 -2.46404e+00
       L  1.19612e+00 -2.67886e+00 -2.27608e+00
6
# CELL(abcABC):  459.05226   459.05226   459.05226    90.00000    90.00000    90.00000  Step:           9  Bead:       0 x_centroid{angstrom}  cell{atomic_unit}
       C -3.43025e-01 -1.23888e-01  6.73416e-02
       O  8.53073e-01  2.69198e-01 -1.73037e-01
       H -1.44081e-01  7.79463e-01 -6.79227e-01
       H -4.75085e-01 -9.04952e-01  8.07102e-01
       L  6.95187e-02 -2.29415e+00 -2.72059e+00
       L  1.27873e+00 -2.87719e+00 -2.39673e+00
6
# CELL(abcABC):  459.05226   459.05226   459.05226    90.00000    90.00000    90.00000  Step:          10  Bead:       0 x_centroid{angstrom}  cell{atomic_unit}
       C -3.41605e-01 -1.23585e-01  6.46731e-02
       O  8.53841e-01  2.69336e-01 -1.71507e-01
       H -1.64975e-01  7.72888e-01 -6.84425e-01
       H -4.83303e-01 -9.03968e-01  8.19959e-01
       L  1.32754e-02 -2.53172e+00 -2.92196e+00
       L  1.33258e+00 -3.01797e+00 -2.45820e+00
6
# CELL(abcABC):  459.05226   459.05226   459.05226    90.00000    90.00000    90.00000  Step:          11  Bead:       0 x_centroid{angstrom}  cell{atomic_unit}
       C -3.39587e-01 -1.22800e-01  6.18510e-02
       O  8.54460e-01  2.69104e-01 -1.69878e-01
       H -1.90071e-01  7.65151e-01 -6.89721e-01
       H -4.92062e-01 -9.01716e-01  8.33126e-01
       L -5.95591e-02 -2.71936e+00 -3.09859e+00
       L  1.38642e+00 -3.17497e+00 -2.47705e+00
6
# CELL(abcABC):  459.05226   459.05226   459.05226    90.00000    90.00000    90.00000  Step:          12  Bead:       0 x_centroid{angstrom}  cell{atomic_unit}
       C -3.36882e-01 -1.21582e-01  5.88920e-02
       O  8.55048e-01  2.68528e-01 -1.68078e-01
       H -2.23124e-01  7.56499e-01 -6.94984e-01
       H -5.00557e-01 -8.98227e-01  8.45227e-01
       L -1.96634e-01 -2.94407e+00 -3.29125e+00
       L  1.47736e+00 -3.32542e+00 -2.55543e+00
6
# CELL(abcABC):  459.05226   459.05226   459.05226    90.00000    90.00000    90.00000  Step:          13  Bead:       0 x_centroid{angstrom}  cell{atomic_unit}
       C -3.33560e-01 -1.19975e-01  5.54391e-02
       O  8.55771e-01  2.67712e-01 -1.65779e-01
       H -2.65339e-01  7.45213e-01 -7.00524e-01
       H -5.09343e-01 -8.92984e-01  8.55552e-01
       L -3.43099e-01 -3.11797e+00 -3.45178e+00
       L  1.52295e+00 -3.42661e+00 -2.64339e+00
6
# CELL(abcABC):  459.05226   459.05226   459.05226    90.00000    90.00000    90.00000  Step:          14  Bead:       0 x_centroid{angstrom}  cell{atomic_unit}
       C -3.29444e-01 -1.18339e-01  5.15985e-02
       O  8.56632e-01  2.66769e-01 -1.63029e-01
       H -3.18280e-01  7.33228e-01 -7.06594e-01
       H -5.19063e-01 -8.85392e-01  8.63864e-01
       L -4.71504e-01 -3.30945e+00 -3.60158e+00
       L  1.54586e+00 -3.49656e+00 -2.73686e+00
6
# CELL(abcABC):  459.05226   459.05226   459.05226    90.00000    90.00000    90.00000  Step:          15  Bead:       0 x_centroid{angstrom}  cell{atomic_unit}
       C -3.24154e-01 -1.16226e-01  4.75224e-02
       O  8.57319e-01  2.65432e-01 -1.59858e-01
       H -3.82629e-01  7.19298e-01 -7.12931e-01
       H -5.28613e-01 -8.75245e-01  8.68505e-01
       L -5.76229e-01 -3.48352e+00 -3.67047e+00
       L  1.58748e+00 -3.63884e+00 -2.79580e+00
6
# CELL(abcABC):  459.05226   459.05226   459.05226    90.00000    90.00000    90.00000  Step:          16  Bead:       0 x_centroid{angstrom}  cell{atomic_unit}
       C -3.17517e-01 -1.13472e-01  4.32113e-02
       O  8.57914e-01  2.63651e-01 -1.56320e-01
       H -4.59231e-01  7.02119e-01 -7.17906e-01
       H -5.40484e-01 -8.62474e-01  8.68735e-01
       L -6.70646e-01 -3.62497e+00 -3.72554e+00
       L  1.56910e+00 -3.74327e+00 -2.82662e+00
6
# CELL(abcABC):  459.05226   459.05226   459.05226    90.00000    90.00000    90.00000  Step:          17  Bead:       0 x_centroid{angstrom}  cell{atomic_unit}
       C -3.10172e-01 -1.10212e-01  3.83831e-02
       O  8.58921e-01  2.61490e-01 -1.52184e-01
       H -5.48886e-01  6.82770e-01 -7.22071e-01
       H -5.54245e-01 -8.47556e-01  8.64849e-01
       L -7.79140e-01 -3.77434e+00 -3.79294e+00
       L  1.52575e+00 -3.79838e+00 -2.86018e+00
6
# CELL(abcABC):  459.05226   459.05226   459.05226    90.00000    90.00000    90.00000  Step:          18  Bead:       0 x_centroid{angstrom}  cell{atomic_unit}
       C -3.01782e-01 -1.06250e-01  3.33812e-02
       O  8.59804e-01  2.58868e-01 -1.47938e-01
       H -6.48348e-01  6.59142e-01 -7.23105e-01
       H -5.68674e-01 -8.29461e-01  8.58056e-01
       L -9.09665e-01 -3.88045e+00 -3.84309e+00
       L  1.44446e+00 -3.80597e+00 -2.77625e+00
6
# CELL(abcABC):  459.05226   459.05226   459.05226    90.00000    90.00000    90.00000  Step:          19  Bead:       0 x_centroid{angstrom}  cell{atomic_unit}
       C -2.92351e-01 -1.01620e-01  2.81763e-02
       O  8.60560e-01  2.55845e-01 -1.43601e-01
       H -7.57424e-01  6.31873e-01 -7.19279e-01
       H -5.83917e-01 -8.09333e-01  8.47336e-01
       L -1.00054e+00 -3.92942e+00 -3.85169e+00
       L  1.42166e+00 -3.82189e+00 -2.62008e+00
6
# CELL(abcABC):  459.05226   459.05226   459.05226    90.00000    90.00000    90.00000  Step:          20  Bead:       0 x_centroid{angstrom}  cell{atomic_unit}
       C -2.82295e-01 -9.65246e-02  2.23880e-02
       O  8.61236e-01  2.52752e-01 -1.38885e-01
       H -8.71582e-01  5.98955e-01 -7.11297e-01
       H -6.00239e-01 -7.88033e-01  8.33362e-01
       L -1.11596e+00 -3.96911e+00 -3.83938e+00
       L  1.39022e+00 -3.81744e+00 -2.44365e+00
6
# CELL(abcABC):  459.05226   459.05226   459.05226    90.00000    90.00000    90.00000  Step:          21  Bead:       0 x_centroid{angstrom}  cell{atomic_unit}
       C -2.71947e-01 -9.12319e-02  1.62519e-02
       O  8.61818e-01  2.49665e-01 -1.34076e-01
       H -9.86336e-01  5.61210e-01 -6.97397e-01
       H -6.17925e-01 -7.64375e-01  8.16140e-01
       L -1.19540e+00 -3.97817e+00 -3.78237e+00
       L  1.30916e+00 -3.75626e+00 -2.29157e+00
6
# CELL(abcABC):  459.05226   459.05226   459.05226    90.00000    90.00000    90.00000  Step:          22  Bead:       0 x_centroid{angstrom}  cell{atomic_unit}
       C -2.61587e-01 -8.53208e-02  9.42279e-03
       O  8.62337e-01  2.46427e-01 -1.29101e-01
       H -1.10071e+00  5.17636e-01 -6.77910e-01
       H -6.35140e-01 -7.39895e-01  7.98921e-01
       L -1.27529e+00 -3.98623e+00 -3.70761e+00
       L  1.19537e+00 -3.63675e+00 -2.13215e+00
6
# CELL(abcABC):  459.05226   459.05226   459.05226    90.00000    90.00000    90.00000  Step:          23  Bead:       0 x_centroid{angstrom}  cell{atomic_unit}
       C -2.51826e-01 -7.86770e-02  1.90329e-03
       O  8.62904e-01  2.43165e-01 -1.23966e-01
       H -1.20985e+00  4.67493e-01 -6.53625e-01
       H -6.51194e-01 -7.17261e-01  7.82559e-01
       L -1.31420e+00 -3.97962e+00 -3.55857e+00
       L  1.00297e+00 -3.44181e+00 -1.95944e+00
6
# CELL(abcABC):  459.05226   459.05226   459.05226    90.00000    90.00000    90.00000  Step:          24  Bead:       0 x_centroid{angstrom}  cell{atomic_unit}
       C -2.43010e-01 -7.16086e-02 -5.57994e-03
       O  8.63595e-01  2.39962e-01 -1.19026e-01
       H -1.31020e+00  4.13825e-01 -6.26787e-01
       H -6.66715e-01 -6.97079e-01  7.66285e-01
       L -1.34995e+00 -3.96670e+00 -3.36550e+00
       L  7.81488e-01 -3.26696e+00 -1.78238e+00
6
# CELL(abcABC):  459.05226   459.05226   459.05226    90.00000    90.00000    90.00000  Step:          25  Bead:       0 x_centroid{angstrom}  cell{atomic_unit}
       C -2.35323e-01 -6.41177e-02 -1.30234e-02
       O  8.64502e-01  2.36726e-01 -1.14274e-01
       H -1.40166e+00  3.57829e-01 -5.98275e-01
       H -6.81098e-01 -6.79148e-01  7.50822e-01
       L -1.43928e+00 -3.89393e+00 -3.17880e+00
       L  5.80358e-01 -3.02726e+00 -1.56828e+00
6
# CELL(abcABC):  459.05226   459.05226   459.05226    90.00000    90.00000    90.00000  Step:          26  Bead:       0 x_centroid{angstrom}  cell{atomic_unit}
       C -2.29293e-01 -5.65900e-02 -2.04562e-02
       O  8.65928e-01  2.33551e-01 -1.09740e-01
       H -1.48264e+00  3.01420e-01 -5.68231e-01
       H -6.94458e-01 -6.62214e-01  7.37145e-01
       L -1.52449e+00 -3.83092e+00 -2.99551e+00
       L  3.72342e-01 -2.76667e+00 -1.35037e+00
6
# CELL(abcABC):  459.05226   459.05226   459.05226    90.00000    90.00000    90.00000  Step:          27  Bead:       0 x_centroid{angstrom}  cell{atomic_unit}
       C -2.25058e-01 -4.91324e-02 -2.78565e-02
       O  8.67766e-01  2.30549e-01 -1.05382e-01
       H -1.55217e+00  2.45370e-01 -5.37738e-01
       H -7.04460e-01 -6.47565e-01  7.25461e-01
       L -1.54074e+00 -3.72880e+00 -2.81976e+00
       L  1.93928e-01 -2.51806e+00 -1.14933e+00
6
# CELL(abcABC):  459.05226   459.05226   459.05226    90.00000    90.00000    90.00000  Step:          28  Bead:       0 x_centroid{angstrom}  cell{atomic_unit}
       C -2.22631e-01 -4.18189e-02 -3.51485e-02
       O  8.70011e-01  2.27811e-01 -1.01226e-01
       H -1.61004e+00  1.90580e-01 -5.08149e-01
       H -7.11078e-01 -6.36710e-01  7.16571e-01
       L -1.47040e+00 -3.55257e+00 -2.63886e+00
       L  1.61702e-02 -2.26274e+00 -9.10055e-01
6
# CELL(abcABC):  459.05226   459.05226   459.05226    90.00000    90.00000    90.00000  Step:          29  Bead:       0 x_centroid{angstrom}  cell{atomic_unit}
       C -2.21930e-01 -3.50112e-02 -4.16774e-02
       O  8.72714e-01  2.25408e-01 -9.75734e-02
       H -1.65746e+00  1.38905e-01 -4.80914e-01
       H -7.14892e-01 -6.28296e-01  7.08926e-01
       L -1.35994e+00 -3.37715e+00 -2.44880e+00
       L -1.40761e-01 -1.91668e+00 -6.88370e-01
6
# CELL(abcABC):  459.05226   459.05226   459.05226    90.00000    90.00000    90.00000  Step:          30  Bead:       0 x_centroid{angstrom}  cell{atomic_unit}
       C -2.23277e-01 -2.88629e-02 -4.76088e-02
       O  8.76106e-01  2.23451e-01 -9.43095e-02
       H -1.69400e+00  8.99540e-02 -4.57255e-01
       H -7.16125e-01 -6.21872e-01  7.03880e-01
       L -1.28388e+00 -3.13918e+00 -2.19591e+00
       L -2.73170e-01 -1.54725e+00 -4.66686e-01
6
# CELL(abcABC):  459.05226   459.05226   459.05226    90.00000    90.00000    90.00000  Step:          31  Bead:       0 x_centroid{angstrom}  cell{atomic_unit}
       C -2.26775e-01 -2.31150e-02 -5.29702e-02
       O  8.80271e-01  2.21735e-01 -9.15659e-02
       H -1.72044e+00  4.40796e-02 -4.36011e-01
       H -7.14097e-01 -6.17626e-01  7.02701e-01
       L -1.16368e+00 -2.88662e+00 -1.90864e+00
       L -4.09935e-01 -1.09440e+00 -2.56754e-01
6
# CELL(abcABC):  459.05226   459.05226   459.05226    90.00000    90.00000    90.00000  Step:          32  Bead:       0 x_centroid{angstrom}  cell{atomic_unit}
       C -2.32013e-01 -1.78252e-02 -5.75077e-02
       O  8.85067e-01  2.20160e-01 -8.93665e-02
       H -1.73927e+00  3.37285e-03 -4.19737e-01
       H -7.08984e-01 -6.15333e-01  7.05355e-01
       L -1.05839e+00 -2.61777e+00 -1.63341e+00
       L -5.27008e-01 -6.69841e-01 -1.10732e-01
6
# CELL(abcABC):  459.05226   459.05226   459.05226    90.00000    90.00000    90.00000  Step:          33  Bead:       0 x_centroid{angstrom}  cell{atomic_unit}
       C -2.38613e-01 -1.31158e-02 -6.18307e-02
       O  8.90081e-01  2.18668e-01 -8.72890e-02
       H -1.74877e+00 -3.03136e-02 -4.06837e-01
       H -7.00452e-01 -6.14478e-01  7.10744e-01
       L -9.24153e-01 -2.28757e+00 -1.33064e+00
       L -5.98055e-01 -2.80909e-01  4.01534e-02
6
# CELL(abcABC):  459.05226   459.05226   459.05226    90.00000    90.00000    90.00000  Step:          34  Bead:       0 x_centroid{angstrom}  cell{atomic_unit}
       C -2.46658e-01 -9.01853e-03 -6.56127e-02
       O  8.95311e-01  2.17401e-01 -8.55212e-02
       H -1.74953e+00 -5.90057e-02 -3.98115e-01
       H -6.86859e-01 -6.14873e-01  7.18781e-01
       L -7.80571e-01 -1.99592e+00 -1.06389e+00
       L -7.20086e-01  1.24874e-01  2.25889e-01
6
# CELL(abcABC):  459.05226   459.05226   459.05226    90.00000    90.00000    90.00000  Step:          35  Bead:       0 x_centroid{angstrom}  cell{atomic_unit}
       C -2.55955e-01 -5.53102e-03 -6.89651e-02
       O  9.00601e-01  2.16267e-01 -8.38558e-02
       H -1.73999e+00 -8.22195e-02 -3.95305e-01
       H -6.69622e-01 -6.15621e-01  7.29199e-01
       L -6.26040e-01 -1.67203e+00 -7.53951e-01
       L -8.07279e-01  5.40173e-01  4.38342e-01
6
# CELL(abcABC):  459.05226   459.05226   459.05226    90.00000    90.00000    90.00000  Step:          36  Bead:       0 x_centroid{angstrom}  cell{atomic_unit}
       C -2.66172e-01 -2.89122e-03 -7.14557e-02
       O  9.05788e-01  2.15374e-01 -8.25000e-02
       H -1.72113e+00 -9.84679e-02 -3.98808e-01
       H -6.49051e-01 -6.17076e-01  7.40580e-01
       L -5.16282e-01 -1.34479e+00 -4.22222e-01
       L -9.44141e-01  9.76934e-01  6.21331e-01
6
# CELL(abcABC):  459.05226   459.05226   459.05226    90.00000    90.00000    90.00000  Step:          37  Bead:       0 x_centroid{angstrom}  cell{atomic_unit}
       C -2.76807e-01 -1.03196e-03 -7.29770e-02
       O  9.10514e-01  2.14765e-01 -8.16471e-02
       H -1.69241e+00 -1.10044e-01 -4.06635e-01
       H -6.26075e-01 -6.18416e-01  7.52750e-01
       L -4.00242e-01 -9.77838e-01 -1.05951e-01
       L -1.02131e+00  1.41467e+00  7.57634e-01
6
# CELL(abcABC):  459.05226   459.05226   459.05226    90.00000    90.00000    90.00000  Step:          38  Bead:       0 x_centroid{angstrom}  cell{atomic_unit}
       C -2.87843e-01 -1.05214e-04 -7.39195e-02
       O  9.14682e-01  2.14522e-01 -8.09337e-02
       H -1.65288e+00 -1.16127e-01 -4.20744e-01
       H -6.00278e-01 -6.19931e-01  7.66521e-01
       L -3.23011e-01 -5.89950e-01  1.83025e-01
       L -1.08302e+00  1.77789e+00  9.17244e-01
6
# CELL(abcABC):  459.05226   459.05226   459.05226    90.00000    90.00000    90.00000  Step:          39  Bead:       0 x_centroid{angstrom}  cell{atomic_unit}
       C -2.99126e-01  3.59907e-04 -7.40001e-02
       O  9.18248e-01  2.14254e-01 -8.06473e-02
       H -1.60244e+00 -1.16739e-01 -4.39143e-01
       H -5.72899e-01 -6.21006e-01  7.81098e-01
       L -1.90502e-01 -1.84289e-01  4.91248e-01
       L -1.14825e+00  2.10191e+00  1.04323e+00
6
# CELL(abcABC):  459.05226   459.05226   459.05226    90.00000    90.00000    90.00000  Step:          40  Bead:       0 x_centroid{angstrom}  cell{atomic_unit}
       C -3.10497e-01  2.85702e-04 -7.34255e-02
       O  9.21178e-01  2.13921e-01 -8.07305e-02
       H -1.54135e+00 -1.10023e-01 -4.61499e-01
       H -5.45062e-01 -6.21927e-01  7.97683e-01
       L -3.94877e-02  2.52788e-01  8.29768e-01
       L -1.18416e+00  2.36642e+00  1.15453e+00
6
# CELL(abcABC):  459.05226   459.05226   459.05226    90.00000    90.00000    90.00000  Step:          41  Bead:       0 x_centroid{angstrom}  cell{atomic_unit}
       C -3.21546e-01 -6.30749e-04 -7.19010e-02
       O  9.23169e-01  2.13896e-01 -8.13101e-02
       H -1.47021e+00 -9.76534e-02 -4.88232e-01
       H -5.16253e-01 -6.23330e-01  8.15202e-01
       L  9.78476e-02  6.61928e-01  1.16552e+00
       L -1.16507e+00  2.58987e+00  1.27489e+00
6
# CELL(abcABC):  459.05226   459.05226   459.05226    90.00000    90.00000    90.00000  Step:          42  Bead:       0 x_centroid{angstrom}  cell{atomic_unit}
       C -3.32307e-01 -1.99521e-03 -6.97429e-02
       O  9.24448e-01  2.13911e-01 -8.22367e-02
       H -1.39052e+00 -8.17922e-02 -5.17781e-01
       H -4.88119e-01 -6.23479e-01  8.33524e-01
       L  2.50581e-01  1.01014e+00  1.45819e+00
       L -1.11044e+00  2.80220e+00  1.38588e+00
6
# CELL(abcABC):  459.05226   459.05226   459.05226    90.00000    90.00000    90.00000  Step:          43  Bead:       0 x_centroid{angstrom}  cell{atomic_unit}
       C -3.42129e-01 -3.98907e-03 -6.67772e-02
       O  9.24691e-01  2.14051e-01 -8.34454e-02
       H -1.30438e+00 -6.09183e-02 -5.51987e-01
       H -4.61125e-01 -6.23142e-01  8.51380e-01
       L  3.74259e-01  1.39469e+00  1.75388e+00
       L -1.11698e+00  3.02501e+00  1.44955e+00
6
# CELL(abcABC):  459.05226   459.05226   459.05226    90.00000    90.00000    90.00000  Step:          44  Bead:       0 x_centroid{angstrom}  cell{atomic_unit}
       C -3.50519e-01 -6.45931e-03 -6.28765e-02
       O  9.24077e-01  2.14114e-01 -8.50359e-02
       H -1.21860e+00 -3.52117e-02 -5.91696e-01
       H -4.37246e-01 -6.20684e-01  8.69606e-01
       L  4.60660e-01  1.69085e+00  2.11098e+00
       L -1.10541e+00  3.23166e+00  1.54984e+00
6
# CELL(abcABC):  459.05226   459.05226   459.05226    90.00000    90.00000    90.00000  Step:          45  Bead:       0 x_centroid{angstrom}  cell{atomic_unit}
       C -3.56699e-01 -9.50049e-03 -5.79431e-02
       O  9.22262e-01  2.14199e-01 -8.68495e-02
       H -1.13662e+00 -5.38872e-03 -6.38129e-01
       H -4.16796e-01 -6.15852e-01  8.85784e-01
       L  5.26226e-01  1.94880e+00  2.45261e+00
       L -1.12310e+00  3.40634e+00  1.67756e+00
6
# CELL(abcABC):  459.05226   459.05226   459.05226    90.00000    90.00000    90.00000  Step:          46  Bead:       0 x_centroid{angstrom}  cell{atomic_unit}
       C -3.60442e-01 -1.26967e-02 -5.15842e-02
       O  9.19514e-01  2.14053e-01 -8.90878e-02
       H -1.06456e+00  2.80441e-02 -6.93563e-01
       H -4.00689e-01 -6.09074e-01  9.00746e-01
       L  5.58702e-01  2.14539e+00  2.74104e+00
       L -1.08222e+00  3.57030e+00  1.81071e+00
6
# CELL(abcABC):  459.05226   459.05226   459.05226    90.00000    90.00000    90.00000  Step:          47  Bead:       0 x_centroid{angstrom}  cell{atomic_unit}
       C -3.61543e-01 -1.60700e-02 -4.36430e-02
       O  9.15847e-01  2.13789e-01 -9.17196e-02
       H -1.00371e+00  6.33898e-02 -7.60142e-01
       H -3.90261e-01 -6.00233e-01  9.14273e-01
       L  5.59436e-01  2.36741e+00  2.97511e+00
       L -9.89887e-01  3.69457e+00  1.94206e+00
6
# CELL(abcABC):  459.05226   459.05226   459.05226    90.00000    90.00000    90.00000  Step:          48  Bead:       0 x_centroid{angstrom}  cell{atomic_unit}
       C -3.59866e-01 -1.98505e-02 -3.46483e-02
       O  9.11117e-01  2.13550e-01 -9.44260e-02
       H -9.53528e-01  1.01563e-01 -8.35324e-01
       H -3.85359e-01 -5.89752e-01  9.25102e-01
       L  5.32445e-01  2.58523e+00  3.14742e+00
       L -9.23275e-01  3.82056e+00  2.00960e+00
6
# CELL(abcABC):  459.05226   459.05226   459.05226    90.00000    90.00000    90.00000  Step:          49  Bead:       0 x_centroid{angstrom}  cell{atomic_unit}
       C -3.55887e-01 -2.36669e-02 -2.46000e-02
       O  9.05566e-01  2.13048e-01 -9.74604e-02
       H -9.11199e-01  1.43060e-01 -9.16528e-01
       H -3.87006e-01 -5.78020e-01  9.34603e-01
       L  4.96801e-01  2.85708e+00  3.30547e+00
       L -8.47194e-01  3.96629e+00  2.09749e+00
6
# CELL(abcABC):  459.05226   459.05226   459.05226    90.00000    90.00000    90.00000  Step:          50  Bead:       0 x_centroid{angstrom}  cell{atomic_unit}
       C -3.49677e-01 -2.78840e-02 -1.40431e-02
       O  8.98999e-01  2.12695e-01 -1.00743e-01
       H -8.73722e-01  1.85455e-01 -9.97037e-01
       H -3.94270e-01 -5.64755e-01  9.41317e-01
       L  4.60602e-01  3.14108e+00  3.43553e+00
       L -7.68984e-01  4.04328e+00  2.15844e+00
6
# CELL(abcABC):  459.05226   459.05226   459.05226    90.00000    90.00000    90.00000  Step:          51  Bead:       0 x_centroid{angstrom}  cell{atomic_unit}
       C -3.41893e-01 -3.20835e-02 -3.74889e-03
       O  8.91731e-01  2.12406e-01 -1.04025e-01
       H -8.37820e-01  2.25405e-01 -1.07242e+00
       H -4.07544e-01 -5.50251e-01  9.45998e-01
       L  3.87500e-01  3.38868e+00  3.61597e+00
       L -7.33133e-01  4.11535e+00  2.20344e+00
6
# CELL(abcABC):  459.05226   459.05226   459.05226    90.00000    90.00000    90.00000  Step:          52  Bead:       0 x_centroid{angstrom}  cell{atomic_unit}
       C -3.32845e-01 -3.57785e-02  6.07632e-03
       O  8.83842e-01  2.12072e-01 -1.07428e-01
       H -8.01882e-01  2.61581e-01 -1.14004e+00
       H -4.26039e-01 -5.37254e-01  9.50451e-01
       L  2.73138e-01  3.61971e+00  3.80425e+00
       L -6.87143e-01  4.15524e+00  2.21243e+00
6
# CELL(abcABC):  459.05226   459.05226   459.05226    90.00000    90.00000    90.00000  Step:          53  Bead:       0 x_centroid{angstrom}  cell{atomic_unit}
       C -3.22762e-01 -3.88331e-02  1.50743e-02
       O  8.75604e-01  2.11495e-01 -1.10788e-01
       H -7.66755e-01  2.95497e-01 -1.19776e+00
       H -4.50534e-01 -5.25714e-01  9.54232e-01
       L  1.42191e-01  3.76497e+00  3.99728e+00
       L -5.69587e-01  4.20386e+00  2.12923e+00
6
# CELL(abcABC):  459.05226   459.05226   459.05226    90.00000    90.00000    90.00000  Step:          54  Bead:       0 x_centroid{angstrom}  cell{atomic_unit}
       C -3.11385e-01 -4.13279e-02  2.28102e-02
       O  8.66874e-01  2.10788e-01 -1.13990e-01
       H -7.33684e-01  3.25677e-01 -1.24484e+00
       H -4.80542e-01 -5.15016e-01  9.59930e-01
       L -1.06930e-02  3.86840e+00  4.18451e+00
       L -5.19649e-01  4.24437e+00  2.00519e+00
6
# CELL(abcABC):  459.05226   459.05226   459.05226    90.00000    90.00000    90.00000  Step:          55  Bead:       0 x_centroid{angstrom}  cell{atomic_unit}
       C -2.99205e-01 -4.31455e-02  2.91840e-02
       O  8.58067e-01  2.09886e-01 -1.17015e-01
       H -7.03405e-01  3.51203e-01 -1.28029e+00
       H -5.16132e-01 -5.04609e-01  9.67463e-01
       L -1.16621e-01  3.93712e+00  4.28455e+00
       L -4.59405e-01  4.23980e+00  1.85466e+00
6
# CELL(abcABC):  459.05226   459.05226   459.05226    90.00000    90.00000    90.00000  Step:          56  Bead:       0 x_centroid{angstrom}  cell{atomic_unit}
       C -2.86357e-01 -4.45266e-02  3.42916e-02
       O  8.49158e-01  2.08896e-01 -1.19822e-01
       H -6.76029e-01  3.73047e-01 -1.30396e+00
       H -5.55181e-01 -4.94238e-01  9.74849e-01
       L -2.35565e-01  3.94457e+00  4.39962e+00
       L -3.74844e-01  4.15830e+00  1.69851e+00
6
# CELL(abcABC):  459.05226   459.05226   459.05226    90.00000    90.00000    90.00000  Step:          57  Bead:       0 x_centroid{angstrom}  cell{atomic_unit}
       C -2.73501e-01 -4.58175e-02  3.81494e-02
       O  8.40798e-01  2.08194e-01 -1.22421e-01
       H -6.52786e-01  3.89751e-01 -1.31528e+00
       H -5.98897e-01 -4.84306e-01  9.81493e-01
       L -3.00725e-01  3.90486e+00  4.52534e+00
       L -3.31883e-01  3.99323e+00  1.51534e+00
6
# CELL(abcABC):  459.05226   459.05226   459.05226    90.00000    90.00000    90.00000  Step:          58  Bead:       0 x_centroid{angstrom}  cell{atomic_unit}
       C -2.60803e-01 -4.66118e-02  4.09673e-02
       O  8.33137e-01  2.07370e-01 -1.24758e-01
       H -6.35154e-01  4.01507e-01 -1.31682e+00
       H -6.46240e-01 -4.73359e-01  9.86612e-01
       L -3.40586e-01  3.77798e+00  4.56031e+00
       L -2.78166e-01  3.82434e+00  1.35824e+00
6
# CELL(abcABC):  459.05226   459.05226   459.05226    90.00000    90.00000    90.00000  Step:          59  Bead:       0 x_centroid{angstrom}  cell{atomic_unit}
       C -2.49223e-01 -4.70999e-02  4.29890e-02
       O  8.26838e-01  2.06642e-01 -1.27023e-01
       H -6.22690e-01  4.07090e-01 -1.30737e+00
       H -6.96731e-01 -4.61358e-01  9.89116e-01
       L -3.72021e-01  3.57019e+00  4.55343e+00
       L -2.26639e-01  3.64284e+00  1.20848e+00
6
# CELL(abcABC):  459.05226   459.05226   459.05226    90.00000    90.00000    90.00000  Step:          60  Bead:       0 x_centroid{angstrom}  cell{atomic_unit}
       C -2.38568e-01 -4.73022e-02  4.39582e-02
       O  8.21686e-01  2.05976e-01 -1.29025e-01
       H -6.17059e-01  4.07770e-01 -1.28760e+00
       H -7.47568e-01 -4.48811e-01  9.89679e-01
       L -3.87347e-01  3.35907e+00  4.47672e+00
       L -1.69934e-01  3.40221e+00  1.07620e+00
6
# CELL(abcABC):  459.05226   459.05226   459.05226    90.00000    90.00000    90.00000  Step:          61  Bead:       0 x_centroid{angstrom}  cell{atomic_unit}
       C -2.29720e-01 -4.74413e-02  4.43798e-02
       O  8.18171e-01  2.05481e-01 -1.30949e-01
       H -6.17337e-01  4.03699e-01 -1.25863e+00
       H -7.96959e-01 -4.34902e-01  9.86404e-01
       L -4.20370e-01  3.08130e+00  4.29137e+00
       L -6.72431e-02  3.11153e+00  9.50402e-01
6
# CELL(abcABC):  459.05226   459.05226   459.05226    90.00000    90.00000    90.00000  Step:          62  Bead:       0 x_centroid{angstrom}  cell{atomic_unit}
       C -2.23156e-01 -4.75935e-02  4.41916e-02
       O  8.16607e-01  2.05167e-01 -1.32642e-01
       H -6.23530e-01  3.96660e-01 -1.22172e+00
       H -8.44160e-01 -4.20737e-01  9.78748e-01
       L -4.87038e-01  2.80457e+00  4.12197e+00
       L -1.58405e-02  2.77903e+00  8.58796e-01
6
# CELL(abcABC):  459.05226   459.05226   459.05226    90.00000    90.00000    90.00000  Step:          63  Bead:       0 x_centroid{angstrom}  cell{atomic_unit}
       C -2.19518e-01 -4.78955e-02  4.35191e-02
       O  8.17357e-01  2.05176e-01 -1.34216e-01
       H -6.34167e-01  3.85476e-01 -1.17617e+00
       H -8.88748e-01 -4.05726e-01  9.66348e-01
       L -5.82421e-01  2.51323e+00  3.89927e+00
       L  3.78397e-02  2.38163e+00  7.85441e-01
6
# CELL(abcABC):  459.05226   459.05226   459.05226    90.00000    90.00000    90.00000  Step:          64  Bead:       0 x_centroid{angstrom}  cell{atomic_unit}
       C -2.18720e-01 -4.82842e-02  4.24832e-02
       O  8.20339e-01  2.05525e-01 -1.35609e-01
       H -6.51182e-01  3.68659e-01 -1.12324e+00
       H -9.28559e-01 -3.89426e-01  9.48097e-01
       L -6.48871e-01  2.23269e+00  3.61452e+00
       L  8.85980e-02  1.95074e+00  6.78915e-01
6
# CELL(abcABC):  459.05226   459.05226   459.05226    90.00000    90.00000    90.00000  Step:          65  Bead:       0 x_centroid{angstrom}  cell{atomic_unit}
       C -2.21036e-01 -4.85057e-02  4.04064e-02
       O  8.25634e-01  2.06191e-01 -1.36429e-01
       H -6.72961e-01  3.45235e-01 -1.06341e+00
       H -9.63268e-01 -3.73552e-01  9.26273e-01
       L -6.82716e-01  1.96884e+00  3.24406e+00
       L  1.81783e-01  1.51738e+00  6.02872e-01
6
# CELL(abcABC):  459.05226   459.05226   459.05226    90.00000    90.00000    90.00000  Step:          66  Bead:       0 x_centroid{angstrom}  cell{atomic_unit}
       C -2.26154e-01 -4.85877e-02  3.72029e-02