6
# CELL(abcABC):  459.05226   459.05226   459.05226    90.00000    90.00000    90.00000  Step:           0  Bead:       0 x_centroid{angstrom}  cell{atomic_unit}
       C -3.39887e-01 -1.13437e-01  8.06659e-02
       O  8.43483e-01  2.62672e-01 -1.81512e-01
       H -7.35799e-02  8.16467e-01 -6.61432e-01
       H -4.30016e-01 -9.65701e-01  7.62278e-01
       L  0.00000e+00  0.00000e+00  0.00000e+00
       L  0.00000e+00  0.00000e+00  0.00000e+00
6
# CELL(abcABC):  459.05226   459.05226   459.05226    90.00000    90.00000    90.00000  Step:           1  Bead:       0 x_centroid{angstrom}  cell{atomic_unit}
       C -3.38880e-01 -1.10412e-01  7.92310e-02
       O  8.43254e-01  2.61510e-01 -1.80251e-01
       H -7.78723e-02  8.04682e-01 -6.56850e-01
       H -4.33812e-01 -9.71482e-01  7.54701e-01
       L -5.02565e-01 -1.42794e-01  8.58028e-02
       L  1.53315e-02  6.60016e-02  5.23647e-02
6
# CELL(abcABC):  459.05226   459.05226   459.05226    90.00000    90.00000    90.00000  Step:           2  Bead:       0 x_centroid{angstrom}  cell{atomic_unit}
       C -3.37788e-01 -1.07388e-01  7.72217e-02
       O  8.43001e-01  2.60322e-01 -1.78581e-01
       H -8.31898e-02  7.92923e-01 -6.52575e-01
       H -4.37199e-01 -9.76881e-01  7.47848e-01
       L -1.03338e+00 -2.47202e-01  1.63213e-01
       L  6.49482e-03  1.32387e-01 -7.29008e-03
6
# CELL(abcABC):  459.05226   459.05226   459.05226    90.00000    90.00000    90.00000  Step:           3  Bead:       0 x_centroid{angstrom}  cell{atomic_unit}
       C -3.36864e-01 -1.04394e-01  7.50601e-02
       O  8.43108e-01  2.59032e-01 -1.76741e-01
       H -9.03422e-02  7.82972e-01 -6.49022e-01
       H -4.42470e-01 -9.82080e-01  7.40819e-01
       L -1.57531e+00 -3.47728e-01  2.47418e-01
       L  2.02389e-03  1.61034e-01 -5.49357e-02
6
# CELL(abcABC):  459.05226   459.05226   459.05226    90.00000    90.00000    90.00000  Step:           4  Bead:       0 x_centroid{angstrom}  cell{atomic_unit}
       C -3.35686e-01 -1.01530e-01  7.27457e-02
       O  8.43302e-01  2.57743e-01 -1.74641e-01
       H -9.97598e-02  7.74487e-01 -6.46750e-01
       H -4.49850e-01 -9.87193e-01  7.32813e-01
       L -2.11002e+00 -5.02050e-01  3.20334e-01
       L -3.52363e-02  1.75655e-01 -1.46029e-01
6
# CELL(abcABC):  459.05226   459.05226   459.05226    90.00000    90.00000    90.00000  Step:           5  Bead:       0 x_centroid{angstrom}  cell{atomic_unit}
       C -3.34547e-01 -9.86213e-02  7.04150e-02
       O  8.43833e-01  2.56367e-01 -1.72434e-01
       H -1.13703e-01  7.66062e-01 -6.44935e-01
       H -4.57599e-01 -9.91495e-01  7.23747e-01
       L -2.59161e+00 -6.80373e-01  4.00473e-01
       L -1.14105e-01  1.89823e-01 -2.46774e-01
6
# CELL(abcABC):  459.05226   459.05226   459.05226    90.00000    90.00000    90.00000  Step:           6  Bead:       0 x_centroid{angstrom}  cell{atomic_unit}
       C -3.33475e-01 -9.60818e-02  6.82227e-02
       O  8.44699e-01  2.54970e-01 -1.70087e-01
       H -1.32279e-01  7.60154e-01 -6.45493e-01
       H -4.65238e-01 -9.93598e-01  7.13158e-01
       L -3.04239e+00 -8.35569e-01  4.73074e-01
       L -2.35893e-01  1.92357e-01 -3.07810e-01
6
# CELL(abcABC):  459.05226   459.05226   459.05226    90.00000    90.00000    90.00000  Step:           7  Bead:       0 x_centroid{angstrom}  cell{atomic_unit}
       C -3.32381e-01 -9.37358e-02  6.61652e-02
       O  8.45976e-01  2.53370e-01 -1.67612e-01
       H -1.56801e-01  7.58129e-01 -6.48531e-01
       H -4.73735e-01 -9.94080e-01  7.01410e-01
       L -3.46014e+00 -9.78888e-01  4.83062e-01
       L -3.53703e-01  2.32656e-01 -2.89478e-01
6
# CELL(abcABC):  459.05226   459.05226   459.05226    90.00000    90.00000    90.00000  Step:           8  Bead:       0 x_centroid{angstrom}  cell{atomic_unit}
       C -3.30980e-01 -9.13660e-02  6.38871e-02
       O  8.47544e-01  2.51511e-01 -1.64782e-01
       H -1.88463e-01  7.58675e-01 -6.54346e-01
       H -4.83413e-01 -9.93277e-01  6.89422e-01
       L -3.81341e+00 -1.13963e+00  5.27034e-01
       L -4.54057e-01  2.47768e-01 -2.80276e-01
6
# CELL(abcABC):  459.05226   459.05226   459.05226    90.00000    90.00000    90.00000  Step:           9  Bead:       0 x_centroid{angstrom}  cell{atomic_unit}
       C -3.29298e-01 -8.85892e-02  6.15219e-02
       O  8.49636e-01  2.49186e-01 -1.61725e-01
       H -2.30322e-01  7.60087e-01 -6.61665e-01
       H -4.94562e-01 -9.90812e-01  6.76358e-01
       L -4.15428e+00 -1.27417e+00  5.65966e-01
       L -5.24905e-01  2.71081e-01 -2.40347e-01
6
# CELL(abcABC):  459.05226   459.05226   459.05226    90.00000    90.00000    90.00000  Step:          10  Bead:       0 x_centroid{angstrom}  cell{atomic_unit}
       C -3.27216e-01 -8.51702e-02  5.86730e-02
       O  8.52129e-01  2.46298e-01 -1.58116e-01
       H -2.81994e-01  7.61289e-01 -6.70681e-01
       H -5.07126e-01 -9.86854e-01  6.61985e-01
       L -4.40310e+00 -1.39127e+00  6.13333e-01
       L -5.69954e-01  2.82990e-01 -1.84082e-01
6
# CELL(abcABC):  459.05226   459.05226   459.05226    90.00000    90.00000    90.00000  Step:          11  Bead:       0 x_centroid{angstrom}  cell{atomic_unit}
       C -3.24685e-01 -8.15516e-02  5.55328e-02
       O  8.55146e-01  2.43087e-01 -1.54299e-01
       H -3.46050e-01  7.62550e-01 -6.80338e-01
       H -5.20959e-01 -9.80220e-01  6.48407e-01
       L -4.63369e+00 -1.47351e+00  6.72761e-01
       L -6.32926e-01  2.85870e-01 -1.20897e-01
6
# CELL(abcABC):  459.05226   459.05226   459.05226    90.00000    90.00000    90.00000  Step:          12  Bead:       0 x_centroid{angstrom}  cell{atomic_unit}
       C -3.20951e-01 -7.75479e-02  5.20314e-02
       O  8.58167e-01  2.39618e-01 -1.50235e-01
       H -4.22988e-01  7.63183e-01 -6.89567e-01
       H -5.36317e-01 -9.73435e-01  6.34755e-01
       L -4.77288e+00 -1.60008e+00  7.54124e-01
       L -7.57437e-01  3.03171e-01 -3.41662e-02
6
# CELL(abcABC):  459.05226   459.05226   459.05226    90.00000    90.00000    90.00000  Step:          13  Bead:       0 x_centroid{angstrom}  cell{atomic_unit}
       C -3.16359e-01 -7.29357e-02  4.77342e-02
       O  8.61588e-01  2.35795e-01 -1.45679e-01
       H -5.13144e-01  7.61660e-01 -6.95918e-01
       H -5.55052e-01 -9.66152e-01  6.19944e-01
       L -4.85652e+00 -1.67393e+00  8.11450e-01
       L -9.19378e-01  3.29376e-01 -1.28569e-02
6
# CELL(abcABC):  459.05226   459.05226   459.05226    90.00000    90.00000    90.00000  Step:          14  Bead:       0 x_centroid{angstrom}  cell{atomic_unit}
       C -3.10656e-01 -6.73648e-02  4.27971e-02
       O  8.64956e-01  2.31410e-01 -1.40859e-01
       H -6.14119e-01  7.56683e-01 -6.98861e-01
       H -5.75401e-01 -9.57965e-01  6.05129e-01
       L -4.86550e+00 -1.75514e+00  8.61973e-01
       L -1.09357e+00  4.13667e-01  1.00418e-01
6
# CELL(abcABC):  459.05226   459.05226   459.05226    90.00000    90.00000    90.00000  Step:          15  Bead:       0 x_centroid{angstrom}  cell{atomic_unit}
       C -3.03938e-01 -6.10078e-02  3.68394e-02
       O  8.68289e-01  2.26839e-01 -1.35602e-01
       H -7.23968e-01  7.46467e-01 -6.97414e-01
       H -5.98473e-01 -9.50922e-01  5.91132e-01
       L -4.76004e+00 -1.84538e+00  9.12175e-01
       L -1.25449e+00  4.68060e-01  2.06276e-01
6
# CELL(abcABC):  459.05226   459.05226   459.05226    90.00000    90.00000    90.00000  Step:          16  Bead:       0 x_centroid{angstrom}  cell{atomic_unit}
       C -2.96644e-01 -5.37679e-02  3.00143e-02
       O  8.71711e-01  2.21931e-01 -1.30069e-01
       H -8.39632e-01  7.30793e-01 -6.90076e-01
       H -6.24060e-01 -9.43595e-01  5.77219e-01
       L -4.58729e+00 -1.88708e+00  9.53403e-01
       L -1.39527e+00  4.88667e-01  3.22234e-01
6
# CELL(abcABC):  459.05226   459.05226   459.05226    90.00000    90.00000    90.00000  Step:          17  Bead:       0 x_centroid{angstrom}  cell{atomic_unit}
       C -2.89024e-01 -4.60866e-02  2.24311e-02
       O  8.75036e-01  2.16847e-01 -1.24384e-01
       H -9.55977e-01  7.09774e-01 -6.75943e-01
       H -6.51341e-01 -9.33400e-01  5.63097e-01
       L -4.39531e+00 -1.89581e+00  1.00399e+00
       L -1.51048e+00  4.74939e-01  4.62212e-01
6
# CELL(abcABC):  459.05226   459.05226   459.05226    90.00000    90.00000    90.00000  Step:          18  Bead:       0 x_centroid{angstrom}  cell{atomic_unit}
       C -2.81306e-01 -3.79796e-02  1.40928e-02
       O  8.78261e-01  2.11811e-01 -1.18431e-01
       H -1.07199e+00  6.82654e-01 -6.56621e-01
       H -6.78567e-01 -9.22967e-01  5.48536e-01
       L -4.13216e+00 -1.88093e+00  1.06109e+00
       L -1.61871e+00  5.05005e-01  6.08447e-01
6
# CELL(abcABC):  459.05226   459.05226   459.05226    90.00000    90.00000    90.00000  Step:          19  Bead:       0 x_centroid{angstrom}  cell{atomic_unit}
       C -2.73984e-01 -2.95299e-02  5.06476e-03
       O  8.81390e-01  2.06757e-01 -1.12314e-01
       H -1.18226e+00  6.49752e-01 -6.32163e-01
       H -7.05343e-01 -9.10559e-01  5.34425e-01
       L -3.85652e+00 -1.85587e+00  1.09004e+00
       L -1.65902e+00  5.22947e-01  8.09517e-01
6
# CELL(abcABC):  459.05226   459.05226   459.05226    90.00000    90.00000    90.00000  Step:          20  Bead:       0 x_centroid{angstrom}  cell{atomic_unit}
       C -2.67115e-01 -2.07948e-02 -4.01567e-03
       O  8.84387e-01  2.01530e-01 -1.06342e-01
       H -1.28539e+00  6.13085e-01 -6.03179e-01
       H -7.31766e-01 -8.95064e-01  5.18722e-01
       L -3.56925e+00 -1.76044e+00  1.14364e+00
       L -1.71901e+00  5.37565e-01  1.00284e+00
6
# CELL(abcABC):  459.05226   459.05226   459.05226    90.00000    90.00000    90.00000  Step:          21  Bead:       0 x_centroid{angstrom}  cell{atomic_unit}
       C -2.60727e-01 -1.21958e-02 -1.36636e-02
       O  8.86997e-01  1.96525e-01 -1.00237e-01
       H -1.37831e+00  5.74035e-01 -5.70451e-01
       H -7.56520e-01 -8.79115e-01  5.03945e-01
       L -3.25324e+00 -1.62344e+00  1.18334e+00
       L -1.80373e+00  5.55424e-01  1.17045e+00
6
# CELL(abcABC):  459.05226   459.05226   459.05226    90.00000    90.00000    90.00000  Step:          22  Bead:       0 x_centroid{angstrom}  cell{atomic_unit}
       C -2.55446e-01 -3.64209e-03 -2.35084e-02
       O  8.89607e-01  1.91632e-01 -9.41424e-02
       H -1.46204e+00  5.33402e-01 -5.34693e-01
       H -7.77311e-01 -8.62881e-01  4.88654e-01
       L -2.86952e+00 -1.44040e+00  1.21612e+00
       L -1.88926e+00  6.18994e-01  1.31784e+00
6
# CELL(abcABC):  459.05226   459.05226   459.05226    90.00000    90.00000    90.00000  Step:          23  Bead:       0 x_centroid{angstrom}  cell{atomic_unit}
       C -2.51075e-01  4.71193e-03 -3.37084e-02
       O  8.91897e-01  1.86918e-01 -8.80790e-02
       H -1.53318e+00  4.90696e-01 -4.95941e-01
       H -7.94827e-01 -8.45085e-01  4.75128e-01
       L -2.46565e+00 -1.20325e+00  1.17235e+00
       L -1.88036e+00  7.25232e-01  1.49123e+00
6
# CELL(abcABC):  459.05226   459.05226   459.05226    90.00000    90.00000    90.00000  Step:          24  Bead:       0 x_centroid{angstrom}  cell{atomic_unit}
       C -2.48058e-01  1.29760e-02 -4.39603e-02
       O  8.94161e-01  1.82169e-01 -8.19613e-02
       H -1.59252e+00  4.48468e-01 -4.55302e-01
       H -8.07639e-01 -8.26144e-01  4.59490e-01
       L -2.00878e+00 -9.35840e-01  1.09097e+00
       L -1.86976e+00  8.35530e-01  1.67067e+00
6
# CELL(abcABC):  459.05226   459.05226   459.05226    90.00000    90.00000    90.00000  Step:          25  Bead:       0 x_centroid{angstrom}  cell{atomic_unit}
       C -2.46227e-01  2.08061e-02 -5.41238e-02
       O  8.96337e-01  1.77555e-01 -7.59366e-02
       H -1.64065e+00  4.09285e-01 -4.14843e-01
       H -8.16167e-01 -8.07248e-01  4.44454e-01
       L -1.51378e+00 -6.61449e-01  9.92765e-01
       L -1.81765e+00  9.53331e-01  1.86768e+00
6
# CELL(abcABC):  459.05226   459.05226   459.05226    90.00000    90.00000    90.00000  Step:          26  Bead:       0 x_centroid{angstrom}  cell{atomic_unit}
       C -2.45736e-01  2.83934e-02 -6.41149e-02
       O  8.98486e-01  1.72977e-01 -7.00269e-02
       H -1.67808e+00  3.74074e-01 -3.75240e-01
       H -8.19010e-01 -7.89977e-01  4.30055e-01
       L -9.93725e-01 -3.80328e-01  9.01720e-01
       L -1.76059e+00  1.03699e+00  2.03935e+00
6
# CELL(abcABC):  459.05226   459.05226   459.05226    90.00000    90.00000    90.00000  Step:          27  Bead:       0 x_centroid{angstrom}  cell{atomic_unit}
       C -2.46922e-01  3.53463e-02 -7.38999e-02
       O  9.00932e-01  1.68617e-01 -6.42495e-02
       H -1.70484e+00  3.42610e-01 -3.38477e-01
       H -8.17274e-01 -7.72365e-01  4.18131e-01
       L -4.51979e-01 -5.80582e-02  8.22758e-01
       L -1.69238e+00  1.09861e+00  2.21433e+00
6
# CELL(abcABC):  459.05226   459.05226   459.05226    90.00000    90.00000    90.00000  Step:          28  Bead:       0 x_centroid{angstrom}  cell{atomic_unit}
       C -2.49575e-01  4.13862e-02 -8.29109e-02
       O  9.03508e-01  1.64686e-01 -5.89797e-02
       H -1.72041e+00  3.17543e-01 -3.04087e-01
       H -8.11307e-01 -7.57090e-01  4.07396e-01
       L  2.28780e-02  2.71204e-01  7.75183e-01
       L -1.55532e+00  1.16451e+00  2.39524e+00
6
# CELL(abcABC):  459.05226   459.05226   459.05226    90.00000    90.00000    90.00000  Step:          29  Bead:       0 x_centroid{angstrom}  cell{atomic_unit}
       C -2.53643e-01  4.68979e-02 -9.14441e-02
       O  9.06164e-01  1.60963e-01 -5.39939e-02
       H -1.72582e+00  2.99343e-01 -2.73868e-01
       H -7.99947e-01 -7.45654e-01  3.99652e-01
       L  5.10956e-01  5.86869e-01  7.28733e-01
       L -1.36095e+00  1.19185e+00  2.56278e+00
6
# CELL(abcABC):  459.05226   459.05226   459.05226    90.00000    90.00000    90.00000  Step:          30  Bead:       0 x_centroid{angstrom}  cell{atomic_unit}
       C -2.59095e-01  5.18725e-02 -9.97165e-02
       O  9.08936e-01  1.57453e-01 -4.91735e-02
       H -1.72188e+00  2.87742e-01 -2.47031e-01
       H -7.83262e-01 -7.37796e-01  3.94816e-01
       L  9.97002e-01  9.31026e-01  6.79233e-01
       L -1.24498e+00  1.18637e+00  2.71795e+00
6
# CELL(abcABC):  459.05226   459.05226   459.05226    90.00000    90.00000    90.00000  Step:          31  Bead:       0 x_centroid{angstrom}  cell{atomic_unit}
       C -2.65563e-01  5.63301e-02 -1.07567e-01
       O  9.11547e-01  1.54189e-01 -4.43579e-02
       H -1.70814e+00  2.83451e-01 -2.25979e-01
       H -7.61719e-01 -7.34993e-01  3.90830e-01
       L  1.54404e+00  1.29925e+00  6.33864e-01
       L -1.13027e+00  1.14628e+00  2.84097e+00
6
# CELL(abcABC):  459.05226   459.05226   459.05226    90.00000    90.00000    90.00000  Step:          32  Bead:       0 x_centroid{angstrom}  cell{atomic_unit}
       C -2.73104e-01  6.02094e-02 -1.14882e-01
       O  9.14105e-01  1.51206e-01 -3.98677e-02
       H -1.68448e+00  2.87558e-01 -2.10031e-01
       H -7.36459e-01 -7.38151e-01  3.90786e-01
       L  2.00726e+00  1.65758e+00  5.15573e-01
       L -9.80531e-01  1.10075e+00  2.93387e+00
6
# CELL(abcABC):  459.05226   459.05226   459.05226    90.00000    90.00000    90.00000  Step:          33  Bead:       0 x_centroid{angstrom}  cell{atomic_unit}
       C -2.81283e-01  6.33965e-02 -1.21465e-01
       O  9.16307e-01  1.48670e-01 -3.57677e-02
       H -1.65045e+00  2.99772e-01 -1.99157e-01
       H -7.08383e-01 -7.48201e-01  3.93323e-01
       L  2.46359e+00  1.94528e+00  3.90850e-01
       L -7.26497e-01  1.02831e+00  2.98029e+00
6
# CELL(abcABC):  459.05226   459.05226   459.05226    90.00000    90.00000    90.00000  Step:          34  Bead:       0 x_centroid{angstrom}  cell{atomic_unit}
       C -2.89937e-01  6.62322e-02 -1.27280e-01
       O  9.18099e-01  1.46338e-01 -3.19935e-02
       H -1.60701e+00  3.19714e-01 -1.93772e-01
       H -6.77512e-01 -7.65032e-01  3.97397e-01
       L  2.89326e+00  2.22365e+00  2.55441e-01
       L -4.72292e-01  9.54046e-01  2.95665e+00
6
# CELL(abcABC):  459.05226   459.05226   459.05226    90.00000    90.00000    90.00000  Step:          35  Bead:       0 x_centroid{angstrom}  cell{atomic_unit}
       C -2.98741e-01  6.82432e-02 -1.32429e-01
       O  9.19261e-01  1.44493e-01 -2.84848e-02
       H -1.55366e+00  3.46226e-01 -1.92829e-01
       H -6.44711e-01 -7.86337e-01  4.02206e-01
       L  3.24070e+00  2.46925e+00  1.07648e-01
       L -2.40500e-01  9.33803e-01  2.93837e+00
6
# CELL(abcABC):  459.05226   459.05226   459.05226    90.00000    90.00000    90.00000  Step:          36  Bead:       0 x_centroid{angstrom}  cell{atomic_unit}
       C -3.07956e-01  6.94783e-02 -1.36475e-01
       O  9.20036e-01  1.43144e-01 -2.54444e-02
       H -1.49033e+00  3.78203e-01 -1.96717e-01
       H -6.10830e-01 -8.11714e-01  4.06165e-01
       L  3.53314e+00  2.70698e+00 -6.02726e-02
       L  6.27568e-03  8.79816e-01  2.89937e+00
6
# CELL(abcABC):  459.05226   459.05226   459.05226    90.00000    90.00000    90.00000  Step:          37  Bead:       0 x_centroid{angstrom}  cell{atomic_unit}
       C -3.17151e-01  6.98451e-02 -1.39413e-01
       O  9.20360e-01  1.42245e-01 -2.28126e-02
       H -1.41853e+00  4.16181e-01 -2.06001e-01
       H -5.78483e-01 -8.39862e-01  4.08837e-01
       L  3.79260e+00  2.92173e+00 -2.63187e-01
       L  2.29923e-01  7.69197e-01  2.80557e+00
6
# CELL(abcABC):  459.05226   459.05226   459.05226    90.00000    90.00000    90.00000  Step:          38  Bead:       0 x_centroid{angstrom}  cell{atomic_unit}
       C -3.26045e-01  6.92904e-02 -1.41324e-01
       O  9.20074e-01  1.41826e-01 -2.06601e-02
       H -1.33895e+00  4.58543e-01 -2.19143e-01
       H -5.47782e-01 -8.68998e-01  4.10752e-01
       L  4.01392e+00  3.13137e+00 -4.42567e-01
       L  4.53887e-01  6.17914e-01  2.67489e+00
6
# CELL(abcABC):  459.05226   459.05226   459.05226    90.00000    90.00000    90.00000  Step:          39  Bead:       0 x_centroid{angstrom}  cell{atomic_unit}
       C -3.33995e-01  6.74973e-02 -1.42215e-01
       O  9.19132e-01  1.42006e-01 -1.89029e-02
       H -1.25835e+00  5.06712e-01 -2.36916e-01
       H -5.18919e-01 -8.98714e-01  4.11391e-01
       L  4.17447e+00  3.33572e+00 -5.41662e-01
       L  7.05597e-01  5.22810e-01  2.51581e+00
6
# CELL(abcABC):  459.05226   459.05226   459.05226    90.00000    90.00000    90.00000  Step:          40  Bead:       0 x_centroid{angstrom}  cell{atomic_unit}
       C -3.40641e-01  6.42752e-02 -1.41792e-01
       O  9.17698e-01  1.42737e-01 -1.76628e-02
       H -1.18090e+00  5.62227e-01 -2.58679e-01
       H -4.94594e-01 -9.27443e-01  4.08552e-01
       L  4.28464e+00  3.47362e+00 -5.94544e-01
       L  9.52718e-01  4.17388e-01  2.36011e+00
6
# CELL(abcABC):  459.05226   459.05226   459.05226    90.00000    90.00000    90.00000  Step:          41  Bead:       0 x_centroid{angstrom}  cell{atomic_unit}
       C -3.45147e-01  5.94088e-02 -1.40318e-01
       O  9.15468e-01  1.43922e-01 -1.67740e-02
       H -1.11123e+00  6.28238e-01 -2.84288e-01
       H -4.75383e-01 -9.54294e-01  4.02639e-01
       L  4.37873e+00  3.65735e+00 -6.73099e-01
       L  1.22127e+00  2.69041e-01  2.14538e+00
6
# CELL(abcABC):  459.05226   459.05226   459.05226    90.00000    90.00000    90.00000  Step:          42  Bead:       0 x_centroid{angstrom}  cell{atomic_unit}
       C -3.47426e-01  5.30745e-02 -1.37601e-01
       O  9.12615e-01  1.45440e-01 -1.62549e-02
       H -1.05262e+00  7.04335e-01 -3.15433e-01
       H -4.61744e-01 -9.79014e-01  3.93335e-01
       L  4.46641e+00  3.80841e+00 -7.41402e-01
       L  1.48058e+00  1.24133e-01  1.92069e+00
6
# CELL(abcABC):  459.05226   459.05226   459.05226    90.00000    90.00000    90.00000  Step:          43  Bead:       0 x_centroid{angstrom}  cell{atomic_unit}
       C -3.47508e-01  4.53957e-02 -1.33666e-01
       O  9.08838e-01  1.47162e-01 -1.61907e-02
       H -1.00076e+00  7.88539e-01 -3.49802e-01
       H -4.52799e-01 -9.99063e-01  3.79979e-01
       L  4.49484e+00  3.96152e+00 -7.76580e-01
       L  1.71353e+00 -2.44531e-02  1.61687e+00
6
# CELL(abcABC):  459.05226   459.05226   459.05226    90.00000    90.00000    90.00000  Step:          44  Bead:       0 x_centroid{angstrom}  cell{atomic_unit}
       C -3.45579e-01  3.68262e-02 -1.28821e-01
       O  9.04292e-01  1.49018e-01 -1.64481e-02
       H -9.54611e-01  8.75905e-01 -3.86426e-01
       H -4.49919e-01 -1.01371e+00  3.63062e-01
       L  4.49983e+00  4.01071e+00 -6.60550e-01
       L  1.96350e+00 -1.71847e-01  1.29568e+00
6
# CELL(abcABC):  459.05226   459.05226   459.05226    90.00000    90.00000    90.00000  Step:          45  Bead:       0 x_centroid{angstrom}  cell{atomic_unit}
       C -3.42187e-01  2.73933e-02 -1.23304e-01
       O  8.99246e-01  1.51363e-01 -1.69687e-02
       H -9.11314e-01  9.62731e-01 -4.24125e-01
       H -4.53623e-01 -1.02526e+00  3.43400e-01
       L  4.49596e+00  4.00249e+00 -5.63566e-01
       L  2.11992e+00 -3.49411e-01  9.93412e-01
6
# CELL(abcABC):  459.05226   459.05226   459.05226    90.00000    90.00000    90.00000  Step:          46  Bead:       0 x_centroid{angstrom}  cell{atomic_unit}
       C -3.37558e-01  1.77459e-02 -1.17798e-01
       O  8.93795e-01  1.53924e-01 -1.73311e-02
       H -8.67752e-01  1.04405e+00 -4.60108e-01
       H -4.65908e-01 -1.03218e+00  3.19596e-01
       L  4.51045e+00  3.99817e+00 -4.59767e-01
       L  2.26394e+00 -5.03311e-01  7.47254e-01
6
# CELL(abcABC):  459.05226   459.05226   459.05226    90.00000    90.00000    90.00000  Step:          47  Bead:       0 x_centroid{angstrom}  cell{atomic_unit}
       C -3.31595e-01  8.57766e-03 -1.11969e-01
       O  8.87777e-01  1.56367e-01 -1.78955e-02
       H -8.25332e-01  1.11707e+00 -4.94273e-01
       H -4.83932e-01 -1.03462e+00  2.93353e-01
       L  4.53499e+00  3.95443e+00 -3.81195e-01
       L  2.40053e+00 -6.54136e-01  5.00477e-01
6
# CELL(abcABC):  459.05226   459.05226   459.05226    90.00000    90.00000    90.00000  Step:          48  Bead:       0 x_centroid{angstrom}  cell{atomic_unit}
       C -3.24941e-01 -3.85220e-05 -1.06200e-01
       O  8.81690e-01  1.58917e-01 -1.84495e-02
       H -7.83763e-01  1.17854e+00 -5.25585e-01
       H -5.08221e-01 -1.03378e+00  2.64805e-01
       L  4.47527e+00  3.88649e+00 -2.77687e-01
       L  2.53460e+00 -8.15485e-01  2.37715e-01
6
# CELL(abcABC):  459.05226   459.05226   459.05226    90.00000    90.00000    90.00000  Step:          49  Bead:       0 x_centroid{angstrom}  cell{atomic_unit}
       C -3.17284e-01 -8.07316e-03 -1.00245e-01
       O  8.75377e-01  1.61527e-01 -1.91550e-02
       H -7.43093e-01  1.22839e+00 -5.54648e-01
       H -5.39898e-01 -1.02916e+00  2.34220e-01
       L  4.29641e+00  3.77047e+00 -1.81909e-01
       L  2.66949e+00 -9.87232e-01 -6.18667e-02
6
# CELL(abcABC):  459.05226   459.05226   459.05226    90.00000    90.00000    90.00000  Step:          50  Bead:       0 x_centroid{angstrom}  cell{atomic_unit}
       C -3.08742e-01 -1.50763e-02 -9.43957e-02
       O  8.68761e-01  1.63925e-01 -1.99877e-02
       H -7.03602e-01  1.26709e+00 -5.79099e-01
       H -5.76081e-01 -1.02225e+00  2.02322e-01
       L  4.04885e+00  3.52245e+00 -1.09602e-01
       L  2.78077e+00 -1.15189e+00 -3.85565e-01
6
# CELL(abcABC):  459.05226   459.05226   459.05226    90.00000    90.00000    90.00000  Step:          51  Bead:       0 x_centroid{angstrom}  cell{atomic_unit}
       C -2.99562e-01 -2.12505e-02 -8.87188e-02
       O  8.62011e-01  1.66344e-01 -2.08036e-02
       H -6.65697e-01  1.29397e+00 -5.99868e-01
       H -6.16154e-01 -1.01372e+00  1.68544e-01
       L  3.76028e+00  3.24306e+00 -5.36636e-02
       L  2.91876e+00 -1.29842e+00 -7.15157e-01
6
# CELL(abcABC):  459.05226   459.05226   459.05226    90.00000    90.00000    90.00000  Step:          52  Bead:       0 x_centroid{angstrom}  cell{atomic_unit}
       C -2.90259e-01 -2.61921e-02 -8.33973e-02
       O  8.55729e-01  1.68568e-01 -2.16179e-02
       H -6.31603e-01  1.30872e+00 -6.17358e-01
       H -6.61250e-01 -1.00463e+00  1.35708e-01
       L  3.43285e+00  2.96799e+00 -5.08988e-03
       L  2.99496e+00 -1.49075e+00 -1.05326e+00
6
# CELL(abcABC):  459.05226   459.05226   459.05226    90.00000    90.00000    90.00000  Step:          53  Bead:       0 x_centroid{angstrom}  cell{atomic_unit}
       C -2.80624e-01 -2.98625e-02 -7.86220e-02
       O  8.49797e-01  1.70680e-01 -2.21815e-02
       H -6.02925e-01  1.31071e+00 -6.30090e-01
       H -7.10439e-01 -9.96149e-01  1.00635e-01
       L  3.13002e+00  2.66464e+00  6.31551e-02
       L  3.06741e+00 -1.67657e+00 -1.40377e+00
6
# CELL(abcABC):  459.05226   459.05226   459.05226    90.00000    90.00000    90.00000  Step:          54  Bead:       0 x_centroid{angstrom}  cell{atomic_unit}
       C -2.71270e-01 -3.20343e-02 -7.44449e-02
       O  8.44608e-01  1.72411e-01 -2.26125e-02
       H -5.79430e-01  1.30187e+00 -6.38831e-01
       H -7.62839e-01 -9.88652e-01  6.66257e-02
       L  2.77173e+00  2.38565e+00  1.35717e-01
       L  3.05814e+00 -1.85644e+00 -1.81094e+00
6
# CELL(abcABC):  459.05226   459.05226   459.05226    90.00000    90.00000    90.00000  Step:          55  Bead:       0 x_centroid{angstrom}  cell{atomic_unit}
       C -2.62927e-01 -3.29989e-02 -7.10852e-02
       O  8.40527e-01  1.73961e-01 -2.28469e-02
       H -5.60401e-01  1.28241e+00 -6.43102e-01
       H -8.16252e-01 -9.82077e-01  3.47497e-02
       L  2.40633e+00  2.13098e+00  2.14796e-01
       L  2.95570e+00 -2.02857e+00 -2.19532e+00
6
# CELL(abcABC):  459.05226   459.05226   459.05226    90.00000    90.00000    90.00000  Step:          56  Bead:       0 x_centroid{angstrom}  cell{atomic_unit}
       C -2.55820e-01 -3.29313e-02 -6.87562e-02
       O  8.37782e-01  1.75396e-01 -2.26348e-02
       H -5.46772e-01  1.25316e+00 -6.43336e-01
       H -8.70719e-01 -9.76197e-01  4.00863e-03
       L  2.07657e+00  1.89130e+00  2.92021e-01
       L  2.78754e+00 -2.16414e+00 -2.53702e+00
6
# CELL(abcABC):  459.05226   459.05226   459.05226    90.00000    90.00000    90.00000  Step:          57  Bead:       0 x_centroid{angstrom}  cell{atomic_unit}
       C -2.49957e-01 -3.16986e-02 -6.72455e-02
       O  8.36320e-01  1.76360e-01 -2.21623e-02
       H -5.39617e-01  1.21439e+00 -6.39932e-01
       H -9.24272e-01 -9.67253e-01 -2.47561e-02
       L  1.73203e+00  1.68369e+00  3.38815e-01
       L  2.63101e+00 -2.25690e+00 -2.84669e+00
6
# CELL(abcABC):  459.05226   459.05226   459.05226    90.00000    90.00000    90.00000  Step:          58  Bead:       0 x_centroid{angstrom}  cell{atomic_unit}
       C -2.46001e-01 -2.97951e-02 -6.66109e-02
       O  8.36426e-01  1.77165e-01 -2.13601e-02
       H -5.37952e-01  1.16696e+00 -6.33422e-01
       H -9.74435e-01 -9.55110e-01 -5.14445e-02
       L  1.30019e+00  1.42612e+00  3.94164e-01
       L  2.47075e+00 -2.31684e+00 -3.11635e+00
6
# CELL(abcABC):  459.05226   459.05226   459.05226    90.00000    90.00000    90.00000  Step:          59  Bead:       0 x_centroid{angstrom}  cell{atomic_unit}
       C -2.44487e-01 -2.70836e-02 -6.68976e-02
       O  8.38426e-01  1.77588e-01 -2.01670e-02
       H -5.43454e-01  1.11164e+00 -6.25189e-01
       H -1.01837e+00 -9.38677e-01 -7.50710e-02
       L  8.84049e-01  1.19315e+00  4.32735e-01
       L  2.26944e+00 -2.35973e+00 -3.38989e+00
6
# CELL(abcABC):  459.05226   459.05226   459.05226    90.00000    90.00000    90.00000  Step:          60  Bead:       0 x_centroid{angstrom}  cell{atomic_unit}
       C -2.45156e-01 -2.34202e-02 -6.84772e-02
       O  8.41996e-01  1.77496e-01 -1.83791e-02
       H -5.54691e-01  1.04792e+00 -6.13755e-01
       H -1.05549e+00 -9.17002e-01 -9.59663e-02
       L  4.50357e-01  9.51035e-01  4.78308e-01
       L  2.06731e+00 -2.37955e+00 -3.61361e+00
6
# CELL(abcABC):  459.05226   459.05226   459.05226    90.00000    90.00000    90.00000  Step:          61  Bead:       0 x_centroid{angstrom}  cell{atomic_unit}
       C -2.47890e-01 -1.89385e-02 -7.10794e-02
       O  8.47077e-01  1.76936e-01 -1.62497e-02
       H -5.71546e-01  9.77880e-01 -5.98762e-01
       H -1.08635e+00 -8.91361e-01 -1.13666e-01
       L -8.71932e-03  7.09335e-01  5.55603e-01
       L  1.86883e+00 -2.34842e+00 -3.84766e+00
6
# CELL(abcABC):  459.05226   459.05226   459.05226    90.00000    90.00000    90.00000  Step:          62  Bead:       0 x_centroid{angstrom}  cell{atomic_unit}
       C -2.52742e-01 -1.36823e-02 -7.47727e-02
       O  8.53668e-01  1.75921e-01 -1.37124e-02
       H -5.94633e-01  9.04692e-01 -5.80106e-01
       H -1.10969e+00 -8.64573e-01 -1.28472e-01
       L -5.15804e-01  4.46225e-01  5.47607e-01
       L  1.70346e+00 -2.30163e+00 -4.05286e+00
6
# CELL(abcABC):  459.05226   459.05226   459.05226    90.00000    90.00000    90.00000  Step:          63  Bead:       0 x_centroid{angstrom}  cell{atomic_unit}
       C -2.59195e-01 -7.97357e-03 -7.92399e-02
       O  8.61534e-01  1.74396e-01 -1.08898e-02
       H -6.25010e-01  8.31724e-01 -5.59635e-01
       H -1.12697e+00 -8.35300e-01 -1.40413e-01
       L -9.33517e-01  1.78619e-01  5.37076e-01
       L  1.54334e+00 -2.28019e+00 -4.23143e+00
6
# CELL(abcABC):  459.05226   459.05226   459.05226    90.00000    90.00000    90.00000  Step:          64  Bead:       0 x_centroid{angstrom}  cell{atomic_unit}
       C -2.66841e-01 -2.35266e-03 -8.47244e-02
       O  8.70270e-01  1.72538e-01 -7.43549e-03
       H -6.62242e-01  7.64325e-01 -5.40501e-01
       H -1.13699e+00 -8.05242e-01 -1.48949e-01
       L -1.35703e+00 -8.42036e-02  5.49200e-01
       L  1.38905e+00 -2.26719e+00 -4.38041e+00
6
# CELL(abcABC):  459.05226   459.05226   459.05226    90.00000    90.00000    90.00000  Step:          65  Bead:       0 x_centroid{angstrom}  cell{atomic_unit}
       C -2.75067e-01  2.88744e-03 -9.06548e-02
       O  8.79557e-01  1.70132e-01 -3.61245e-03
       H -7.08699e-01  7.09301e-01 -5.26152e-01
       H -1.13959e+00 -7.74377e-01 -1.53271e-01
       L -1.76076e+00 -3.30367e-01  6.08042e-01
       L  1.18227e+00 -2.20865e+00 -4.52203e+00
6
# CELL(abcABC):  459.05226   459.05226   459.05226    90.00000    90.00000    90.00000  Step:          66  Bead:       0 x_centroid{angstrom}  cell{atomic_unit}
       C -2.83638e-01  7.20958e-03 -9.64454e-02