6
# CELL(abcABC):  459.05226   459.05226   459.05226    90.00000    90.00000    90.00000  Step:           0  Bead:       0 x_centroid{angstrom}  cell{atomic_unit}
       C -3.39887e-01 -1.13437e-01  8.06659e-02
       O  8.43483e-01  2.62672e-01 -1.81512e-01
       H -7.35799e-02  8.16467e-01 -6.61432e-01
       H -4.30016e-01 -9.65701e-01  7.62278e-01
       L  0.00000e+00  0.00000e+00  0.00000e+00
       L  0.00000e+00  0.00000e+00  0.00000e+00
6
# CELL(abcABC):  459.05226   459.05226   459.05226    90.00000    90.00000    90.00000  Step:           1  Bead:       0 x_centroid{angstrom}  cell{atomic_unit}
       C -3.41657e-01 -1.17519e-01  8.06807e-02
       O  8.44989e-01  2.64588e-01 -1.81758e-01
       H -7.47983e-02  8.24821e-01 -6.58487e-01
       H -4.31944e-01 -9.56095e-01  7.62664e-01
       L  3.07681e-01 -3.20518e-01 -1.36296e-01
       L  3.17371e-01  7.73296e-01  8.63786e-01
6
# CELL(abcABC):  459.05226   459.05226   459.05226    90.00000    90.00000    90.00000  Step:           2  Bead:       0 x_centroid{angstrom}  cell{atomic_unit}
       C -3.43101e-01 -1.21451e-01  8.04754e-02
       O  8.46202e-01  2.66428e-01 -1.81814e-01
       H -7.58609e-02  8.32614e-01 -6.55733e-01
       H -4.33232e-01 -9.46456e-01  7.62837e-01
       L  5.96443e-01 -6.60153e-01 -2.85672e-01
       L  5.80065e-01  1.53936e+00  1.75628e+00
6
# CELL(abcABC):  459.05226   459.05226   459.05226    90.00000    90.00000    90.00000  Step:           3  Bead:       0 x_centroid{angstrom}  cell{atomic_unit}
       C -3.44692e-01 -1.25185e-01  8.01807e-02
       O  8.47436e-01  2.68284e-01 -1.81870e-01
       H -7.60914e-02  8.40260e-01 -6.52640e-01
       H -4.33935e-01 -9.39317e-01  7.63744e-01
       L  9.03090e-01 -9.82680e-01 -4.31102e-01
       L  8.32603e-01  2.31333e+00  2.63058e+00
6
# CELL(abcABC):  459.05226   459.05226   459.05226    90.00000    90.00000    90.00000  Step:           4  Bead:       0 x_centroid{angstrom}  cell{atomic_unit}
       C -3.46172e-01 -1.28852e-01  7.94681e-02
       O  8.48435e-01  2.70302e-01 -1.81674e-01
       H -7.48419e-02  8.46470e-01 -6.49689e-01
       H -4.33711e-01 -9.34080e-01  7.65802e-01
       L  1.17994e+00 -1.32678e+00 -6.27077e-01
       L  1.10781e+00  3.06121e+00  3.51299e+00
6
# CELL(abcABC):  459.05226   459.05226   459.05226    90.00000    90.00000    90.00000  Step:           5  Bead:       0 x_centroid{angstrom}  cell{atomic_unit}
       C -3.47641e-01 -1.32343e-01  7.84574e-02
       O  8.49232e-01  2.72373e-01 -1.81463e-01
       H -7.10351e-02  8.52139e-01 -6.45992e-01
       H -4.32972e-01 -9.31280e-01  7.70471e-01
       L  1.48378e+00 -1.61056e+00 -8.48972e-01
       L  1.35678e+00  3.81646e+00  4.33811e+00
6
# CELL(abcABC):  459.05226   459.05226   459.05226    90.00000    90.00000    90.00000  Step:           6  Bead:       0 x_centroid{angstrom}  cell{atomic_unit}
       C -3.49108e-01 -1.35464e-01  7.75263e-02
       O  8.50019e-01  2.74301e-01 -1.81438e-01
       H -6.56417e-02  8.56905e-01 -6.41902e-01
       H -4.33678e-01 -9.29748e-01  7.76730e-01
       L  1.78089e+00 -1.81610e+00 -1.02037e+00
       L  1.63091e+00  4.53963e+00  5.14700e+00
6
# CELL(abcABC):  459.05226   459.05226   459.05226    90.00000    90.00000    90.00000  Step:           7  Bead:       0 x_centroid{angstrom}  cell{atomic_unit}
       C -3.50473e-01 -1.38135e-01  7.66121e-02
       O  8.50649e-01  2.76105e-01 -1.81533e-01
       H -5.92920e-02  8.60307e-01 -6.37112e-01
       H -4.34083e-01 -9.30239e-01  7.84004e-01
       L  2.09171e+00 -2.00166e+00 -1.21683e+00
       L  1.92292e+00  5.26169e+00  5.97132e+00
6
# CELL(abcABC):  459.05226   459.05226   459.05226    90.00000    90.00000    90.00000  Step:           8  Bead:       0 x_centroid{angstrom}  cell{atomic_unit}
       C -3.51651e-01 -1.40503e-01  7.52580e-02
       O  8.50968e-01  2.77858e-01 -1.81477e-01
       H -5.04535e-02  8.62896e-01 -6.31319e-01
       H -4.34266e-01 -9.32739e-01  7.93130e-01
       L  2.40786e+00 -2.17993e+00 -1.36860e+00
       L  2.17160e+00  5.96963e+00  6.72944e+00
6
# CELL(abcABC):  459.05226   459.05226   459.05226    90.00000    90.00000    90.00000  Step:           9  Bead:       0 x_centroid{angstrom}  cell{atomic_unit}
       C -3.52676e-01 -1.42840e-01  7.37201e-02
       O  8.51021e-01  2.79737e-01 -1.81411e-01
       H -3.92817e-02  8.63773e-01 -6.24679e-01
       H -4.34420e-01 -9.35852e-01  8.03499e-01
       L  2.74805e+00 -2.34150e+00 -1.51613e+00
       L  2.48243e+00  6.62130e+00  7.37437e+00
6
# CELL(abcABC):  459.05226   459.05226   459.05226    90.00000    90.00000    90.00000  Step:          10  Bead:       0 x_centroid{angstrom}  cell{atomic_unit}
       C -3.53923e-01 -1.44899e-01  7.20575e-02
       O  8.51044e-01  2.81557e-01 -1.81289e-01
       H -2.47586e-02  8.64244e-01 -6.18341e-01
       H -4.34774e-01 -9.40868e-01  8.14809e-01
       L  3.11101e+00 -2.53413e+00 -1.66804e+00
       L  2.72315e+00  7.16795e+00  7.93580e+00
6
# CELL(abcABC):  459.05226   459.05226   459.05226    90.00000    90.00000    90.00000  Step:          11  Bead:       0 x_centroid{angstrom}  cell{atomic_unit}
       C -3.55112e-01 -1.47102e-01  7.02602e-02
       O  8.50667e-01  2.83553e-01 -1.80988e-01
       H -5.86087e-03  8.64501e-01 -6.12202e-01
       H -4.33794e-01 -9.46699e-01  8.25103e-01
       L  3.41826e+00 -2.74122e+00 -1.81614e+00
       L  2.91181e+00  7.61418e+00  8.45031e+00
6
# CELL(abcABC):  459.05226   459.05226   459.05226    90.00000    90.00000    90.00000  Step:          12  Bead:       0 x_centroid{angstrom}  cell{atomic_unit}
       C -3.56230e-01 -1.49294e-01  6.83869e-02
       O  8.49755e-01  2.85511e-01 -1.80567e-01
       H  1.91170e-02  8.64824e-01 -6.06501e-01
       H -4.31184e-01 -9.52094e-01  8.34883e-01
       L  3.68003e+00 -2.91811e+00 -1.97956e+00
       L  3.05945e+00  8.00433e+00  8.90250e+00
6
# CELL(abcABC):  459.05226   459.05226   459.05226    90.00000    90.00000    90.00000  Step:          13  Bead:       0 x_centroid{angstrom}  cell{atomic_unit}
       C -3.57444e-01 -1.51857e-01  6.66224e-02
       O  8.48392e-01  2.87698e-01 -1.79966e-01
       H  5.09347e-02  8.66276e-01 -6.02858e-01
       H -4.27134e-01 -9.57859e-01  8.42591e-01
       L  3.95357e+00 -2.98187e+00 -2.10391e+00
       L  3.20587e+00  8.33378e+00  9.28563e+00
6
# CELL(abcABC):  459.05226   459.05226   459.05226    90.00000    90.00000    90.00000  Step:          14  Bead:       0 x_centroid{angstrom}  cell{atomic_unit}
       C -3.58614e-01 -1.54857e-01  6.54175e-02
       O  8.46513e-01  2.89909e-01 -1.79671e-01
       H  8.98769e-02  8.70710e-01 -6.00317e-01
       H -4.22528e-01 -9.61819e-01  8.49604e-01
       L  4.23191e+00 -3.01943e+00 -2.17947e+00
       L  3.34928e+00  8.69218e+00  9.58459e+00
6
# CELL(abcABC):  459.05226   459.05226   459.05226    90.00000    90.00000    90.00000  Step:          15  Bead:       0 x_centroid{angstrom}  cell{atomic_unit}
       C -3.59957e-01 -1.58445e-01  6.46548e-02
       O  8.44182e-01  2.92244e-01 -1.79439e-01
       H  1.35552e-01  8.78747e-01 -5.99053e-01
       H -4.15407e-01 -9.64301e-01  8.53640e-01
       L  4.40249e+00 -3.03396e+00 -2.22210e+00
       L  3.52812e+00  8.96822e+00  9.81146e+00
6
# CELL(abcABC):  459.05226   459.05226   459.05226    90.00000    90.00000    90.00000  Step:          16  Bead:       0 x_centroid{angstrom}  cell{atomic_unit}
       C -3.61702e-01 -1.62606e-01  6.43778e-02
       O  8.41555e-01  2.94671e-01 -1.79343e-01
       H  1.89096e-01  8.90298e-01 -6.00159e-01
       H -4.06626e-01 -9.64888e-01  8.56455e-01
       L  4.56386e+00 -3.03091e+00 -2.24259e+00
       L  3.66902e+00  9.13532e+00  9.96341e+00
6
# CELL(abcABC):  459.05226   459.05226   459.05226    90.00000    90.00000    90.00000  Step:          17  Bead:       0 x_centroid{angstrom}  cell{atomic_unit}
       C -3.63806e-01 -1.67242e-01  6.44966e-02
       O  8.38563e-01  2.97012e-01 -1.79237e-01
       H  2.49920e-01  9.08006e-01 -6.04913e-01
       H -3.94990e-01 -9.64595e-01  8.58077e-01
       L  4.68775e+00 -2.97662e+00 -2.21710e+00
       L  3.73770e+00  9.22655e+00  1.00113e+01
6
# CELL(abcABC):  459.05226   459.05226   459.05226    90.00000    90.00000    90.00000  Step:          18  Bead:       0 x_centroid{angstrom}  cell{atomic_unit}
       C -3.65983e-01 -1.72240e-01  6.48798e-02
       O  8.35153e-01  2.99378e-01 -1.78961e-01
       H  3.16174e-01  9.30149e-01 -6.14912e-01
       H -3.81241e-01 -9.64801e-01  8.59104e-01
       L  4.77213e+00 -2.85997e+00 -2.14896e+00
       L  3.77711e+00  9.20279e+00  9.97290e+00
6
# CELL(abcABC):  459.05226   459.05226   459.05226    90.00000    90.00000    90.00000  Step:          19  Bead:       0 x_centroid{angstrom}  cell{atomic_unit}
       C -3.68469e-01 -1.77663e-01  6.55574e-02
       O  8.31440e-01  3.01562e-01 -1.78471e-01
       H  3.88146e-01  9.59665e-01 -6.30592e-01
       H -3.64698e-01 -9.64370e-01  8.58987e-01
       L  4.84733e+00 -2.74148e+00 -2.10128e+00
       L  3.81100e+00  9.12639e+00  9.84145e+00
6
# CELL(abcABC):  459.05226   459.05226   459.05226    90.00000    90.00000    90.00000  Step:          20  Bead:       0 x_centroid{angstrom}  cell{atomic_unit}
       C -3.71036e-01 -1.83452e-01  6.66078e-02
       O  8.27486e-01  3.03608e-01 -1.77867e-01
       H  4.62825e-01  9.95717e-01 -6.51320e-01
       H -3.46081e-01 -9.63929e-01  8.57715e-01
       L  4.90199e+00 -2.55253e+00 -2.04612e+00
       L  3.85570e+00  8.96574e+00  9.58566e+00
6
# CELL(abcABC):  459.05226   459.05226   459.05226    90.00000    90.00000    90.00000  Step:          21  Bead:       0 x_centroid{angstrom}  cell{atomic_unit}
       C -3.73358e-01 -1.89202e-01  6.79298e-02
       O  8.23186e-01  3.05263e-01 -1.76993e-01
       H  5.38390e-01  1.03817e+00 -6.76987e-01
       H -3.25721e-01 -9.64118e-01  8.53872e-01
       L  4.94564e+00 -2.34849e+00 -1.93984e+00
       L  3.81427e+00  8.74342e+00  9.25871e+00
6
# CELL(abcABC):  459.05226   459.05226   459.05226    90.00000    90.00000    90.00000  Step:          22  Bead:       0 x_centroid{angstrom}  cell{atomic_unit}
       C -3.75628e-01 -1.95261e-01  6.96225e-02
       O  8.18587e-01  3.07019e-01 -1.76076e-01
       H  6.15732e-01  1.08229e+00 -7.06373e-01
       H -3.03009e-01 -9.63840e-01  8.48707e-01
       L  4.95658e+00 -2.17664e+00 -1.82725e+00
       L  3.80827e+00  8.41755e+00  8.82011e+00
6
# CELL(abcABC):  459.05226   459.05226   459.05226    90.00000    90.00000    90.00000  Step:          23  Bead:       0 x_centroid{angstrom}  cell{atomic_unit}
       C -3.77927e-01 -2.01115e-01  7.10829e-02
       O  8.13818e-01  3.08798e-01 -1.74961e-01
       H  6.95145e-01  1.12411e+00 -7.34534e-01
       H -2.79294e-01 -9.64075e-01  8.41962e-01
       L  4.93296e+00 -1.93486e+00 -1.67909e+00
       L  3.74240e+00  8.01948e+00  8.32760e+00
6
# CELL(abcABC):  459.05226   459.05226   459.05226    90.00000    90.00000    90.00000  Step:          24  Bead:       0 x_centroid{angstrom}  cell{atomic_unit}
       C -3.80151e-01 -2.06712e-01  7.27566e-02
       O  8.08852e-01  3.10818e-01 -1.74173e-01
       H  7.74634e-01  1.16031e+00 -7.59893e-01
       H -2.53352e-01 -9.65501e-01  8.35061e-01
       L  4.86902e+00 -1.64150e+00 -1.55134e+00
       L  3.62494e+00  7.49793e+00  7.83381e+00
6
# CELL(abcABC):  459.05226   459.05226   459.05226    90.00000    90.00000    90.00000  Step:          25  Bead:       0 x_centroid{angstrom}  cell{atomic_unit}
       C -3.82551e-01 -2.11736e-01  7.45722e-02
       O  8.04030e-01  3.13041e-01 -1.73743e-01
       H  8.52336e-01  1.18758e+00 -7.80945e-01
       H -2.25760e-01 -9.68052e-01  8.27868e-01
       L  4.79974e+00 -1.32934e+00 -1.40155e+00
       L  3.40638e+00  6.91485e+00  7.30849e+00
6
# CELL(abcABC):  459.05226   459.05226   459.05226    90.00000    90.00000    90.00000  Step:          26  Bead:       0 x_centroid{angstrom}  cell{atomic_unit}
       C -3.84744e-01 -2.16383e-01  7.59964e-02
       O  7.99106e-01  3.15685e-01 -1.73543e-01
       H  9.27092e-01  1.20621e+00 -7.94575e-01
       H -1.96007e-01 -9.73124e-01  8.21600e-01
       L  4.67302e+00 -9.49674e-01 -1.25415e+00
       L  3.15519e+00  6.25998e+00  6.70546e+00
6
# CELL(abcABC):  459.05226   459.05226   459.05226    90.00000    90.00000    90.00000  Step:          27  Bead:       0 x_centroid{angstrom}  cell{atomic_unit}
       C -3.86890e-01 -2.20715e-01  7.70728e-02
       O  7.94372e-01  3.18856e-01 -1.73480e-01
       H  9.97464e-01  1.21408e+00 -8.02517e-01
       H -1.65429e-01 -9.79510e-01  8.16006e-01
       L  4.52459e+00 -6.22796e-01 -1.11803e+00
       L  2.86187e+00  5.56357e+00  6.03593e+00
6
# CELL(abcABC):  459.05226   459.05226   459.05226    90.00000    90.00000    90.00000  Step:          28  Bead:       0 x_centroid{angstrom}  cell{atomic_unit}
       C -3.88890e-01 -2.24701e-01  7.78525e-02
       O  7.89898e-01  3.22459e-01 -1.73656e-01
       H  1.06101e+00  1.21140e+00 -8.03619e-01
       H -1.33840e-01 -9.86267e-01  8.10893e-01
       L  4.34057e+00 -3.39179e-01 -9.42960e-01
       L  2.52024e+00  4.81552e+00  5.32285e+00
6
# CELL(abcABC):  459.05226   459.05226   459.05226    90.00000    90.00000    90.00000  Step:          29  Bead:       0 x_centroid{angstrom}  cell{atomic_unit}
       C -3.90650e-01 -2.27995e-01  7.85563e-02
       O  7.85626e-01  3.26312e-01 -1.74211e-01
       H  1.11732e+00  1.19839e+00 -7.98563e-01
       H -1.01047e-01 -9.94866e-01  8.06574e-01
       L  4.11747e+00 -6.44720e-02 -7.68310e-01
       L  2.18906e+00  3.97950e+00  4.58260e+00
6
# CELL(abcABC):  459.05226   459.05226   459.05226    90.00000    90.00000    90.00000  Step:          30  Bead:       0 x_centroid{angstrom}  cell{atomic_unit}
       C -3.92216e-01 -2.31141e-01  7.89897e-02
       O  7.81658e-01  3.30651e-01 -1.75026e-01
       H  1.16576e+00  1.17611e+00 -7.86624e-01
       H -6.75432e-02 -1.00366e+00  8.02712e-01
       L  3.89010e+00  2.38167e-01 -5.39183e-01
       L  1.86439e+00  3.11526e+00  3.78590e+00
6
# CELL(abcABC):  459.05226   459.05226   459.05226    90.00000    90.00000    90.00000  Step:          31  Bead:       0 x_centroid{angstrom}  cell{atomic_unit}
       C -3.93553e-01 -2.34167e-01  7.87942e-02
       O  7.78110e-01  3.35489e-01 -1.75625e-01
       H  1.20553e+00  1.14507e+00 -7.69748e-01
       H -3.47416e-02 -1.01304e+00  7.97971e-01
       L  3.57846e+00  5.18697e-01 -2.75077e-01
       L  1.56249e+00  2.25732e+00  2.98408e+00
6
# CELL(abcABC):  459.05226   459.05226   459.05226    90.00000    90.00000    90.00000  Step:          32  Bead:       0 x_centroid{angstrom}  cell{atomic_unit}
       C -3.94289e-01 -2.36908e-01  7.82685e-02
       O  7.74878e-01  3.40495e-01 -1.76289e-01
       H  1.23453e+00  1.10618e+00 -7.47615e-01
       H -3.31534e-03 -1.02065e+00  7.92970e-01
       L  3.21881e+00  7.68369e-01 -1.85394e-02
       L  1.26847e+00  1.43586e+00  2.12222e+00
6
# CELL(abcABC):  459.05226   459.05226   459.05226    90.00000    90.00000    90.00000  Step:          33  Bead:       0 x_centroid{angstrom}  cell{atomic_unit}
       C -3.94667e-01 -2.39326e-01  7.77808e-02
       O  7.72078e-01  3.45633e-01 -1.77193e-01
       H  1.25371e+00  1.06179e+00 -7.21881e-01
       H  2.68230e-02 -1.02866e+00  7.87695e-01
       L  2.84542e+00  9.87648e-01  3.13072e-01
       L  9.62390e-01  5.99438e-01  1.22977e+00
6
# CELL(abcABC):  459.05226   459.05226   459.05226    90.00000    90.00000    90.00000  Step:          34  Bead:       0 x_centroid{angstrom}  cell{atomic_unit}
       C -3.94452e-01 -2.41632e-01  7.73724e-02
       O  7.69575e-01  3.50890e-01 -1.78277e-01
       H  1.26419e+00  1.01373e+00 -6.92542e-01
       H  5.39277e-02 -1.03621e+00  7.80761e-01
       L  2.40549e+00  1.19862e+00  6.27896e-01
       L  6.59295e-01 -2.64550e-01  3.31842e-01
6
# CELL(abcABC):  459.05226   459.05226   459.05226    90.00000    90.00000    90.00000  Step:          35  Bead:       0 x_centroid{angstrom}  cell{atomic_unit}
       C -3.93913e-01 -2.43586e-01  7.71150e-02
       O  7.67585e-01  3.55944e-01 -1.79308e-01
       H  1.26775e+00  9.63063e-01 -6.64815e-01
       H  7.59219e-02 -1.04210e+00  7.72747e-01
       L  1.95449e+00  1.40746e+00  9.01614e-01
       L  3.78726e-01 -1.16220e+00 -4.78139e-01
6
# CELL(abcABC):  459.05226   459.05226   459.05226    90.00000    90.00000    90.00000  Step:          36  Bead:       0 x_centroid{angstrom}  cell{atomic_unit}
       C -3.92650e-01 -2.45592e-01  7.65726e-02
       O  7.65554e-01  3.60564e-01 -1.79718e-01
       H  1.26794e+00  9.16831e-01 -6.42250e-01
       H  9.33924e-02 -1.04489e+00  7.63464e-01
       L  1.42787e+00  1.53961e+00  1.17951e+00
       L  5.53866e-02 -2.06826e+00 -1.31125e+00
6
# CELL(abcABC):  459.05226   459.05226   459.05226    90.00000    90.00000    90.00000  Step:          37  Bead:       0 x_centroid{angstrom}  cell{atomic_unit}
       C -3.90816e-01 -2.47235e-01  7.59872e-02
       O  7.63194e-01  3.64310e-01 -1.79329e-01
       H  1.26918e+00  8.78953e-01 -6.28652e-01
       H  1.08227e-01 -1.04644e+00  7.50943e-01
       L  9.01080e-01  1.64242e+00  1.45163e+00
       L -2.76690e-01 -3.01095e+00 -2.11084e+00
6
# CELL(abcABC):  459.05226   459.05226   459.05226    90.00000    90.00000    90.00000  Step:          38  Bead:       0 x_centroid{angstrom}  cell{atomic_unit}
       C -3.88592e-01 -2.49003e-01  7.57969e-02
       O  7.60408e-01  3.67202e-01 -1.78322e-01
       H  1.27811e+00  8.54131e-01 -6.28100e-01
       H  1.17482e-01 -1.04600e+00  7.37005e-01
       L  3.46751e-01  1.75250e+00  1.66623e+00
       L -5.92756e-01 -3.94820e+00 -2.92111e+00
6
# CELL(abcABC):  459.05226   459.05226   459.05226    90.00000    90.00000    90.00000  Step:          39  Bead:       0 x_centroid{angstrom}  cell{atomic_unit}
       C -3.85778e-01 -2.51031e-01  7.54996e-02
       O  7.56897e-01  3.69236e-01 -1.76192e-01
       H  1.29751e+00  8.44239e-01 -6.41459e-01
       H  1.20739e-01 -1.04379e+00  7.20357e-01
       L -1.98795e-01  1.83287e+00  1.87427e+00
       L -8.84145e-01 -4.84232e+00 -3.62134e+00
6
# CELL(abcABC):  459.05226   459.05226   459.05226    90.00000    90.00000    90.00000  Step:          40  Bead:       0 x_centroid{angstrom}  cell{atomic_unit}
       C -3.82643e-01 -2.52919e-01  7.53148e-02
       O  7.52963e-01  3.70269e-01 -1.73450e-01
       H  1.32433e+00  8.47251e-01 -6.65711e-01
       H  1.19454e-01 -1.04031e+00  7.03525e-01
       L -6.79584e-01  1.89990e+00  2.09121e+00
       L -1.22267e+00 -5.64981e+00 -4.24590e+00
6
# CELL(abcABC):  459.05226   459.05226   459.05226    90.00000    90.00000    90.00000  Step:          41  Bead:       0 x_centroid{angstrom}  cell{atomic_unit}
       C -3.79189e-01 -2.54935e-01  7.52689e-02
       O  7.48992e-01  3.71037e-01 -1.70501e-01
       H  1.35230e+00  8.55690e-01 -6.95874e-01
       H  1.13759e-01 -1.03657e+00  6.87643e-01
       L -1.14613e+00  2.00623e+00  2.24842e+00
       L -1.47953e+00 -6.36366e+00 -4.81408e+00
6
# CELL(abcABC):  459.05226   459.05226   459.05226    90.00000    90.00000    90.00000  Step:          42  Bead:       0 x_centroid{angstrom}  cell{atomic_unit}
       C -3.75593e-01 -2.56992e-01  7.51864e-02
       O  7.45220e-01  3.71629e-01 -1.67528e-01
       H  1.37741e+00  8.66182e-01 -7.27552e-01
       H  1.06002e-01 -1.03161e+00  6.73286e-01
       L -1.56099e+00  2.03263e+00  2.41294e+00
       L -1.68821e+00 -7.03236e+00 -5.29392e+00
6
# CELL(abcABC):  459.05226   459.05226   459.05226    90.00000    90.00000    90.00000  Step:          43  Bead:       0 x_centroid{angstrom}  cell{atomic_unit}
       C -3.71903e-01 -2.58742e-01  7.48007e-02
       O  7.41865e-01  3.72215e-01 -1.64529e-01
       H  1.39603e+00  8.75520e-01 -7.57399e-01
       H  9.69908e-02 -1.02906e+00  6.60302e-01
       L -1.95001e+00  2.05398e+00  2.54471e+00
       L -1.88350e+00 -7.65457e+00 -5.76203e+00
6
# CELL(abcABC):  459.05226   459.05226   459.05226    90.00000    90.00000    90.00000  Step:          44  Bead:       0 x_centroid{angstrom}  cell{atomic_unit}
       C -3.68184e-01 -2.60175e-01  7.40628e-02
       O  7.39208e-01  3.72978e-01 -1.61716e-01
       H  1.40464e+00  8.81812e-01 -7.82349e-01
       H  8.65570e-02 -1.03008e+00  6.49567e-01
       L -2.32154e+00  2.02006e+00  2.63322e+00
       L -2.08583e+00 -8.19123e+00 -6.18213e+00
6
# CELL(abcABC):  459.05226   459.05226   459.05226    90.00000    90.00000    90.00000  Step:          45  Bead:       0 x_centroid{angstrom}  cell{atomic_unit}
       C -3.64413e-01 -2.61341e-01  7.28500e-02
       O  7.37388e-01  3.73974e-01 -1.59108e-01
       H  1.40162e+00  8.83793e-01 -8.01951e-01
       H  7.37896e-02 -1.03370e+00  6.42438e-01
       L -2.61631e+00  1.94953e+00  2.68278e+00
       L -2.28231e+00 -8.63666e+00 -6.60809e+00
6
# CELL(abcABC):  459.05226   459.05226   459.05226    90.00000    90.00000    90.00000  Step:          46  Bead:       0 x_centroid{angstrom}  cell{atomic_unit}
       C -3.60702e-01 -2.61989e-01  7.12123e-02
       O  7.36354e-01  3.75256e-01 -1.56881e-01
       H  1.38832e+00  8.80379e-01 -8.14972e-01
       H  5.95309e-02 -1.04265e+00  6.39814e-01
       L -2.92907e+00  1.85816e+00  2.72743e+00
       L -2.43093e+00 -9.01317e+00 -7.00486e+00
6
# CELL(abcABC):  459.05226   459.05226   459.05226    90.00000    90.00000    90.00000  Step:          47  Bead:       0 x_centroid{angstrom}  cell{atomic_unit}
       C -3.57632e-01 -2.62705e-01  6.91334e-02
       O  7.36477e-01  3.77125e-01 -1.54855e-01
       H  1.36482e+00  8.73290e-01 -8.22445e-01
       H  4.47168e-02 -1.05649e+00  6.40058e-01
       L -3.24803e+00  1.75040e+00  2.73998e+00
       L -2.52201e+00 -9.31067e+00 -7.30797e+00
6
# CELL(abcABC):  459.05226   459.05226   459.05226    90.00000    90.00000    90.00000  Step:          48  Bead:       0 x_centroid{angstrom}  cell{atomic_unit}
       C -3.55201e-01 -2.62847e-01  6.65856e-02
       O  7.37695e-01  3.79146e-01 -1.53032e-01
       H  1.33140e+00  8.61685e-01 -8.25287e-01
       H  3.00330e-02 -1.07504e+00  6.44453e-01
       L -3.50549e+00  1.60020e+00  2.71819e+00
       L -2.61330e+00 -9.55636e+00 -7.52608e+00
6
# CELL(abcABC):  459.05226   459.05226   459.05226    90.00000    90.00000    90.00000  Step:          49  Bead:       0 x_centroid{angstrom}  cell{atomic_unit}
       C -3.53076e-01 -2.62674e-01  6.32834e-02
       O  7.39776e-01  3.81243e-01 -1.50994e-01
       H  1.28849e+00  8.47873e-01 -8.24808e-01
       H  1.47662e-02 -1.09640e+00  6.51073e-01
       L -3.71236e+00  1.42153e+00  2.66888e+00
       L -2.73733e+00 -9.71149e+00 -7.65912e+00
6
# CELL(abcABC):  459.05226   459.05226   459.05226    90.00000    90.00000    90.00000  Step:          50  Bead:       0 x_centroid{angstrom}  cell{atomic_unit}
       C -3.51087e-01 -2.62380e-01  5.97461e-02
       O  7.42291e-01  3.83332e-01 -1.48993e-01
       H  1.23987e+00  8.32778e-01 -8.23400e-01
       H -1.03875e-04 -1.11785e+00  6.60134e-01
       L -3.82131e+00  1.25331e+00  2.61472e+00
       L -2.84985e+00 -9.75296e+00 -7.76945e+00
6
# CELL(abcABC):  459.05226   459.05226   459.05226    90.00000    90.00000    90.00000  Step:          51  Bead:       0 x_centroid{angstrom}  cell{atomic_unit}
       C -3.49342e-01 -2.62013e-01  5.59776e-02
       O  7.45313e-01  3.85156e-01 -1.46769e-01
       H  1.18663e+00  8.19956e-01 -8.23762e-01
       H -1.55268e-02 -1.13827e+00  6.70180e-01
       L -3.92311e+00  1.10822e+00  2.54955e+00
       L -2.94963e+00 -9.74878e+00 -7.83190e+00
6
# CELL(abcABC):  459.05226   459.05226   459.05226    90.00000    90.00000    90.00000  Step:          52  Bead:       0 x_centroid{angstrom}  cell{atomic_unit}
       C -3.47863e-01 -2.61456e-01  5.21494e-02
       O  7.48798e-01  3.86611e-01 -1.44176e-01
       H  1.13093e+00  8.09524e-01 -8.29337e-01
       H -3.26689e-02 -1.15758e+00  6.80269e-01
       L -3.94042e+00  9.77458e-01  2.44124e+00
       L -3.10071e+00 -9.63888e+00 -7.82806e+00
6
# CELL(abcABC):  459.05226   459.05226   459.05226    90.00000    90.00000    90.00000  Step:          53  Bead:       0 x_centroid{angstrom}  cell{atomic_unit}
       C -3.46525e-01 -2.61154e-01  4.79968e-02
       O  7.52414e-01  3.87577e-01 -1.40876e-01
       H  1.07562e+00  8.06011e-01 -8.43049e-01
       H -5.06480e-02 -1.17298e+00  6.91083e-01
       L -3.91702e+00  7.89939e-01  2.34824e+00
       L -3.25625e+00 -9.46340e+00 -7.74864e+00
6
# CELL(abcABC):  459.05226   459.05226   459.05226    90.00000    90.00000    90.00000  Step:          54  Bead:       0 x_centroid{angstrom}  cell{atomic_unit}
       C -3.45652e-01 -2.61159e-01  4.39214e-02
       O  7.56336e-01  3.88058e-01 -1.36946e-01
       H  1.02150e+00  8.10035e-01 -8.66870e-01
       H -6.91757e-02 -1.18462e+00  7.01097e-01
       L -3.85919e+00  5.72105e-01  2.21875e+00
       L -3.32505e+00 -9.18001e+00 -7.62578e+00
6
# CELL(abcABC):  459.05226   459.05226   459.05226    90.00000    90.00000    90.00000  Step:          55  Bead:       0 x_centroid{angstrom}  cell{atomic_unit}
       C -3.44834e-01 -2.61119e-01  3.97636e-02
       O  7.60186e-01  3.87764e-01 -1.32315e-01
       H  9.67245e-01  8.20782e-01 -8.99436e-01
       H -8.58042e-02 -1.19125e+00  7.09663e-01
       L -3.72796e+00  3.32315e-01  2.05786e+00
       L -3.38749e+00 -8.81868e+00 -7.42063e+00
6
# CELL(abcABC):  459.05226   459.05226   459.05226    90.00000    90.00000    90.00000  Step:          56  Bead:       0 x_centroid{angstrom}  cell{atomic_unit}
       C -3.44189e-01 -2.61653e-01  3.55547e-02
       O  7.64337e-01  3.87255e-01 -1.27274e-01
       H  9.09419e-01  8.36768e-01 -9.37445e-01
       H -1.01650e-01 -1.19289e+00  7.17770e-01
       L -3.56095e+00  6.50383e-02  1.91335e+00
       L -3.39911e+00 -8.36802e+00 -7.19438e+00
6
# CELL(abcABC):  459.05226   459.05226   459.05226    90.00000    90.00000    90.00000  Step:          57  Bead:       0 x_centroid{angstrom}  cell{atomic_unit}
       C -3.43718e-01 -2.62464e-01  3.13668e-02
       O  7.68747e-01  3.86442e-01 -1.22180e-01
       H  8.49945e-01  8.55554e-01 -9.75613e-01
       H -1.17878e-01 -1.18922e+00  7.24931e-01
       L -3.33492e+00 -2.20642e-01  1.71611e+00
       L -3.43411e+00 -7.86057e+00 -6.89848e+00
6
# CELL(abcABC):  459.05226   459.05226   459.05226    90.00000    90.00000    90.00000  Step:          58  Bead:       0 x_centroid{angstrom}  cell{atomic_unit}
       C -3.43488e-01 -2.63821e-01  2.70918e-02
       O  7.73355e-01  3.85821e-01 -1.17110e-01
       H  7.88300e-01  8.72988e-01 -1.01070e+00
       H -1.32234e-01 -1.18075e+00  7.30432e-01
       L -3.11875e+00 -4.91590e-01  1.49048e+00
       L -3.45883e+00 -7.35863e+00 -6.58192e+00
6
# CELL(abcABC):  459.05226   459.05226   459.05226    90.00000    90.00000    90.00000  Step:          59  Bead:       0 x_centroid{angstrom}  cell{atomic_unit}
       C -3.43356e-01 -2.65661e-01  2.29268e-02
       O  7.78085e-01  3.85233e-01 -1.12480e-01
       H  7.25815e-01  8.89878e-01 -1.03926e+00
       H -1.46532e-01 -1.16654e+00  7.35072e-01
       L -2.88645e+00 -7.94254e-01  1.25729e+00
       L -3.45166e+00 -6.78270e+00 -6.25067e+00
6
# CELL(abcABC):  459.05226   459.05226   459.05226    90.00000    90.00000    90.00000  Step:          60  Bead:       0 x_centroid{angstrom}  cell{atomic_unit}
       C -3.43139e-01 -2.68254e-01  1.86648e-02
       O  7.82714e-01  3.85135e-01 -1.08358e-01
       H  6.62773e-01  9.02749e-01 -1.05744e+00
       H -1.59720e-01 -1.14714e+00  7.38553e-01
       L -2.58408e+00 -1.11773e+00  9.81111e-01
       L -3.46213e+00 -6.10956e+00 -5.87325e+00
6
# CELL(abcABC):  459.05226   459.05226   459.05226    90.00000    90.00000    90.00000  Step:          61  Bead:       0 x_centroid{angstrom}  cell{atomic_unit}
       C -3.42895e-01 -2.70651e-01  1.39340e-02
       O  7.87212e-01  3.84940e-01 -1.04602e-01
       H  6.01905e-01  9.11707e-01 -1.06423e+00
       H -1.73313e-01 -1.12473e+00  7.41964e-01
       L -2.30440e+00 -1.39342e+00  7.35586e-01
       L -3.44690e+00 -5.31515e+00 -5.38364e+00
6
# CELL(abcABC):  459.05226   459.05226   459.05226    90.00000    90.00000    90.00000  Step:          62  Bead:       0 x_centroid{angstrom}  cell{atomic_unit}
       C -3.42309e-01 -2.73273e-01  9.29978e-03
       O  7.91202e-01  3.84992e-01 -1.01621e-01
       H  5.43392e-01  9.16322e-01 -1.05865e+00
       H -1.85288e-01 -1.09919e+00  7.44172e-01
       L -2.00842e+00 -1.65733e+00  4.17052e-01
       L -3.42049e+00 -4.57278e+00 -4.86147e+00
6
# CELL(abcABC):  459.05226   459.05226   459.05226    90.00000    90.00000    90.00000  Step:          63  Bead:       0 x_centroid{angstrom}  cell{atomic_unit}
       C -3.41682e-01 -2.75926e-01  5.08994e-03
       O  7.94820e-01  3.85249e-01 -9.96892e-02
       H  4.90020e-01  9.16977e-01 -1.04268e+00
       H -1.97055e-01 -1.07264e+00  7.47565e-01
       L -1.70121e+00 -1.88384e+00  1.12732e-01
       L -3.31307e+00 -3.73344e+00 -4.29718e+00
6
# CELL(abcABC):  459.05226   459.05226   459.05226    90.00000    90.00000    90.00000  Step:          64  Bead:       0 x_centroid{angstrom}  cell{atomic_unit}
       C -3.40953e-01 -2.78457e-01  1.03001e-03
       O  7.97934e-01  3.85567e-01 -9.85758e-02
       H  4.43153e-01  9.12745e-01 -1.01563e+00
       H -2.08556e-01 -1.04365e+00  7.51088e-01
       L -1.37093e+00 -2.07980e+00 -2.13671e-01
       L -3.17690e+00 -2.87992e+00 -3.73703e+00
6
# CELL(abcABC):  459.05226   459.05226   459.05226    90.00000    90.00000    90.00000  Step:          65  Bead:       0 x_centroid{angstrom}  cell{atomic_unit}
       C -3.40295e-01 -2.81045e-01 -3.06971e-03
       O  8.00478e-01  3.86136e-01 -9.82740e-02
       H  4.04330e-01  9.05389e-01 -9.78457e-01
       H -2.18231e-01 -1.01486e+00  7.57838e-01
       L -1.07088e+00 -2.28073e+00 -5.64558e-01
       L -2.96894e+00 -1.97275e+00 -3.12694e+00
6
# CELL(abcABC):  459.05226   459.05226   459.05226    90.00000    90.00000    90.00000  Step:          66  Bead:       0 x_centroid{angstrom}  cell{atomic_unit}
       C -3.39315e-01 -2.83477e-01 -7.27398e-03