5
# CELL(abcABC):  459.05226   459.05226   459.05226    90.00000    90.00000    90.00000  Step:           0  Bead:       0 x_centroid{angstrom}  cell{atomic_unit}
       C -1.59952e-01  7.73417e-15 -3.30660e-15
       O -1.30437e+00 -1.37101e-15  3.69725e-15
       S  1.46432e+00 -6.36316e-15 -3.90655e-16
       L  1.00000e-01  0.00000e+00  0.00000e+00
       L  0.00000e+00  0.00000e+00  0.00000e+00
5
# CELL(abcABC):  459.05226   459.05226   459.05226    90.00000    90.00000    90.00000  Step:           1  Bead:       0 x_centroid{angstrom}  cell{atomic_unit}
       C -1.59948e-01  2.20979e-09  3.85552e-09
       O -1.30437e+00  4.36115e-09  2.39522e-09
       S  1.46432e+00 -3.01529e-09 -2.63999e-09
       L  1.01470e-01  4.46665e-07 -5.70433e-07
       L  7.28390e-07  2.29939e-07  6.14694e-07
5
# CELL(abcABC):  459.05226   459.05226   459.05226    90.00000    90.00000    90.00000  Step:           2  Bead:       0 x_centroid{angstrom}  cell{atomic_unit}
       C -1.59936e-01  4.41540e-09  7.70555e-09
       O -1.30438e+00  8.72431e-09  4.79290e-09
       S  1.46432e+00 -6.02952e-09 -5.27912e-09
       L  1.05801e-01  8.74536e-07 -1.11686e-06
       L  1.40000e-06  4.49850e-07  1.20352e-06
5
# CELL(abcABC):  459.05226   459.05226   459.05226    90.00000    90.00000    90.00000  Step:           3  Bead:       0 x_centroid{angstrom}  cell{atomic_unit}
       C -1.59916e-01  6.61207e-09  1.15444e-08
       O -1.30439e+00  1.30918e-08  7.19555e-09
       S  1.46431e+00 -9.04160e-09 -7.91649e-09
       L  1.12769e-01  1.26561e-06 -1.61630e-06
       L  1.98862e-06  6.50130e-07  1.74171e-06
5
# CELL(abcABC):  459.05226   459.05226   459.05226    90.00000    90.00000    90.00000  Step:           4  Bead:       0 x_centroid{angstrom}  cell{atomic_unit}
       C -1.59892e-01  8.79379e-09  1.53664e-08
       O -1.30440e+00  1.74665e-08  9.60569e-09
       S  1.46431e+00 -1.20502e-08 -1.05512e-08
       L  1.22014e-01  1.60343e-06 -2.04772e-06
       L  2.47278e-06  8.22005e-07  2.20661e-06
5
# CELL(abcABC):  459.05226   459.05226   459.05226    90.00000    90.00000    90.00000  Step:           5  Bead:       0 x_centroid{angstrom}  cell{atomic_unit}
       C -1.59864e-01  1.09559e-08  1.91654e-08
       O -1.30441e+00  2.18510e-08  1.20259e-08
       S  1.46431e+00 -1.50547e-08 -1.31822e-08
       L  1.33061e-01  1.87378e-06 -2.39298e-06
       L  2.83643e-06  9.57906e-07  2.57866e-06
5
# CELL(abcABC):  459.05226   459.05226   459.05226    90.00000    90.00000    90.00000  Step:           6  Bead:       0 x_centroid{angstrom}  cell{atomic_unit}
       C -1.59836e-01  1.30948e-08  2.29355e-08
       O -1.30442e+00  2.62472e-08  1.44588e-08
       S  1.46430e+00 -1.80542e-08 -1.58085e-08
       L  1.45352e-01  2.06528e-06 -2.63755e-06
       L  3.06937e-06  1.05179e-06  2.84220e-06
5
# CELL(abcABC):  459.05226   459.05226   459.05226    90.00000    90.00000    90.00000  Step:           7  Bead:       0 x_centroid{angstrom}  cell{atomic_unit}
       C -1.59811e-01  1.52076e-08  2.66706e-08
       O -1.30443e+00  3.06566e-08  1.69071e-08
       S  1.46430e+00 -2.10483e-08 -1.84293e-08
       L  1.58273e-01  2.16989e-06 -2.77113e-06
       L  3.16740e-06  1.09939e-06  2.98615e-06
5
# CELL(abcABC):  459.05226   459.05226   459.05226    90.00000    90.00000    90.00000  Step:           8  Bead:       0 x_centroid{angstrom}  cell{atomic_unit}
       C -1.59790e-01  1.72921e-08  3.03647e-08
       O -1.30444e+00  3.50801e-08  1.93737e-08
       S  1.46429e+00 -2.40364e-08 -2.10437e-08
       L  1.71196e-01  2.18319e-06 -2.78811e-06
       L  3.13215e-06  1.09840e-06  3.00445e-06
5
# CELL(abcABC):  459.05226   459.05226   459.05226    90.00000    90.00000    90.00000  Step:           9  Bead:       0 x_centroid{angstrom}  cell{atomic_unit}
       C -1.59777e-01  1.93471e-08  3.40122e-08
       O -1.30444e+00  3.95184e-08  2.18610e-08
       S  1.46429e+00 -2.70184e-08 -2.36508e-08
       L  1.83508e-01  2.10463e-06 -2.68777e-06
       L  2.97068e-06  1.04857e-06  2.89632e-06
5
# CELL(abcABC):  459.05226   459.05226   459.05226    90.00000    90.00000    90.00000  Step:          10  Bead:       0 x_centroid{angstrom}  cell{atomic_unit}
       C -1.59773e-01  2.13723e-08  3.76077e-08
       O -1.30444e+00  4.39715e-08  2.43717e-08
       S  1.46428e+00 -2.99943e-08 -2.62500e-08
       L  1.94652e-01  1.93751e-06 -2.47434e-06
       L  2.69487e-06  9.51745e-07  2.66633e-06
5
# CELL(abcABC):  459.05226   459.05226   459.05226    90.00000    90.00000    90.00000  Step:          11  Bead:       0 x_centroid{angstrom}  cell{atomic_unit}
       C -1.59780e-01  2.33680e-08  4.11457e-08
       O -1.30443e+00  4.84392e-08  2.69084e-08
       S  1.46428e+00 -3.29644e-08 -2.88405e-08
       L  2.04152e-01  1.68886e-06 -2.15679e-06
       L  2.32068e-06  8.11727e-07  2.32414e-06
5
# CELL(abcABC):  459.05226   459.05226   459.05226    90.00000    90.00000    90.00000  Step:          12  Bead:       0 x_centroid{angstrom}  cell{atomic_unit}
       C -1.59798e-01  2.53354e-08  4.46210e-08
       O -1.30441e+00  5.29207e-08  2.94735e-08
       S  1.46428e+00 -3.59289e-08 -3.14215e-08
       L  2.11643e-01  1.36915e-06 -1.74848e-06
       L  1.86718e-06  6.34167e-07  1.88415e-06
5
# CELL(abcABC):  459.05226   459.05226   459.05226    90.00000    90.00000    90.00000  Step:          13  Bead:       0 x_centroid{angstrom}  cell{atomic_unit}
       C -1.59827e-01  2.72763e-08  4.80284e-08
       O -1.30439e+00  5.74151e-08  3.20692e-08
       S  1.46428e+00 -3.88883e-08 -3.39923e-08
       L  2.16883e-01  9.91832e-07 -1.26660e-06
       L  1.35568e-06  4.26308e-07  1.36488e-06
5
# CELL(abcABC):  459.05226   459.05226   459.05226    90.00000    90.00000    90.00000  Step:          14  Bead:       0 x_centroid{angstrom}  cell{atomic_unit}
       C -1.59867e-01  2.91932e-08  5.13633e-08
       O -1.30436e+00  6.19209e-08  3.46971e-08
       S  1.46428e+00 -4.18434e-08 -3.65519e-08
       L  2.19765e-01  5.72778e-07 -7.31430e-07
       L  8.08662e-07  1.96679e-07  7.88183e-07
5
# CELL(abcABC):  459.05226   459.05226   459.05226    90.00000    90.00000    90.00000  Step:          15  Bead:       0 x_centroid{angstrom}  cell{atomic_unit}
       C -1.59914e-01  3.10886e-08  5.46210e-08
       O -1.30432e+00  6.64368e-08  3.73592e-08
       S  1.46428e+00 -4.47948e-08 -3.90996e-08
       L  2.20319e-01  1.29624e-07 -1.65479e-07
       L  2.48876e-07 -4.52672e-08  1.78318e-07
5
# CELL(abcABC):  459.05226   459.05226   459.05226    90.00000    90.00000    90.00000  Step:          16  Bead:       0 x_centroid{angstrom}  cell{atomic_unit}
       C -1.59968e-01  3.29656e-08  5.77966e-08
       O -1.30429e+00  7.09610e-08  4.00576e-08
       S  1.46428e+00 -4.77434e-08 -4.16347e-08
       L  2.18701e-01 -3.18985e-07  4.07435e-07
       L -3.01551e-07 -2.89548e-07 -4.39051e-07
5
# CELL(abcABC):  459.05226   459.05226   459.05226    90.00000    90.00000    90.00000  Step:          17  Bead:       0 x_centroid{angstrom}  cell{atomic_unit}
       C -1.60024e-01  3.48270e-08  6.08859e-08
       O -1.30425e+00  7.54918e-08  4.27941e-08
       S  1.46428e+00 -5.06898e-08 -4.41565e-08
       L  2.15179e-01 -7.54172e-07  9.63205e-07
       L -8.21908e-07 -5.26075e-07 -1.03794e-06
5
# CELL(abcABC):  459.05226   459.05226   459.05226    90.00000    90.00000    90.00000  Step:          18  Bead:       0 x_centroid{angstrom}  cell{atomic_unit}
       C -1.60080e-01  3.66757e-08  6.38844e-08
       O -1.30421e+00  8.00278e-08  4.55707e-08
       S  1.46429e+00 -5.36348e-08 -4.66643e-08
       L  2.10112e-01 -1.15762e-06  1.47845e-06
       L -1.29357e-06 -7.45081e-07 -1.59316e-06
5
# CELL(abcABC):  459.05226   459.05226   459.05226    90.00000    90.00000    90.00000  Step:          19  Bead:       0 x_centroid{angstrom}  cell{atomic_unit}
       C -1.60132e-01  3.85144e-08  6.67881e-08
       O -1.30418e+00  8.45674e-08  4.83890e-08
       S  1.46429e+00 -5.65792e-08 -4.91575e-08
       L  2.03920e-01 -1.51237e-06  1.93147e-06
       L -1.70052e-06 -9.37530e-07 -2.08135e-06
5
# CELL(abcABC):  459.05226   459.05226   459.05226    90.00000    90.00000    90.00000  Step:          20  Bead:       0 x_centroid{angstrom}  cell{atomic_unit}
       C -1.60176e-01  4.03452e-08  6.95931e-08
       O -1.30415e+00  8.91093e-08  5.12507e-08
       S  1.46429e+00 -5.95235e-08 -5.16355e-08
       L  1.97053e-01 -1.80347e-06  2.30323e-06
       L -2.02976e-06 -1.09550e-06 -2.48195e-06
5
# CELL(abcABC):  459.05226   459.05226   459.05226    90.00000    90.00000    90.00000  Step:          21  Bead:       0 x_centroid{angstrom}  cell{atomic_unit}
       C -1.60210e-01  4.21696e-08  7.22956e-08
       O -1.30413e+00  9.36528e-08  5.41574e-08
       S  1.46430e+00 -6.24681e-08 -5.40977e-08
       L  1.89964e-01 -2.01869e-06  2.57807e-06
       L -2.27156e-06 -1.21252e-06 -2.77811e-06
5
# CELL(abcABC):  459.05226   459.05226   459.05226    90.00000    90.00000    90.00000  Step:          22  Bead:       0 x_centroid{angstrom}  cell{atomic_unit}
       C -1.60231e-01  4.39888e-08  7.48922e-08
       O -1.30412e+00  9.81971e-08  5.71105e-08
       S  1.46430e+00 -6.54134e-08 -5.65435e-08
       L  1.83074e-01 -2.14897e-06  2.74443e-06
       L -2.41960e-06 -1.28382e-06 -2.95738e-06
5
# CELL(abcABC):  459.05226   459.05226   459.05226    90.00000    90.00000    90.00000  Step:          23  Bead:       0 x_centroid{angstrom}  cell{atomic_unit}
       C -1.60237e-01  4.58030e-08  7.73797e-08
       O -1.30412e+00  1.02742e-07  6.01114e-08
       S  1.46430e+00 -6.83596e-08 -5.89725e-08
       L  1.76750e-01 -2.18883e-06  2.79531e-06
       L -2.47099e-06 -1.30658e-06 -3.01221e-06
5
# CELL(abcABC):  459.05226   459.05226   459.05226    90.00000    90.00000    90.00000  Step:          24  Bead:       0 x_centroid{angstrom}  cell{atomic_unit}
       C -1.60227e-01  4.76118e-08  7.97550e-08
       O -1.30412e+00  1.07287e-07  6.31614e-08
       S  1.46430e+00 -7.13064e-08 -6.13841e-08
       L  1.71276e-01 -2.13658e-06  2.72857e-06
       L -2.42618e-06 -1.27999e-06 -2.94029e-06
5
# CELL(abcABC):  459.05226   459.05226   459.05226    90.00000    90.00000    90.00000  Step:          25  Bead:       0 x_centroid{angstrom}  cell{atomic_unit}
       C -1.60201e-01  4.94140e-08  8.20155e-08
       O -1.30414e+00  1.11834e-07  6.62616e-08
       S  1.46430e+00 -7.42539e-08 -6.37779e-08
       L  1.66844e-01 -1.99443e-06  2.54701e-06
       L -2.28879e-06 -1.20533e-06 -2.74465e-06
5
# CELL(abcABC):  459.05226   459.05226   459.05226    90.00000    90.00000    90.00000  Step:          26  Bead:       0 x_centroid{angstrom}  cell{atomic_unit}
       C -1.60160e-01  5.12079e-08  8.41587e-08
       O -1.30417e+00  1.16383e-07  6.94132e-08
       S  1.46430e+00 -7.72014e-08 -6.61535e-08
       L  1.63544e-01 -1.76837e-06  2.25828e-06
       L -2.06542e-06 -1.08588e-06 -2.43352e-06
5
# CELL(abcABC):  459.05226   459.05226   459.05226    90.00000    90.00000    90.00000  Step:          27  Bead:       0 x_centroid{angstrom}  cell{atomic_unit}
       C -1.60106e-01  5.29909e-08  8.61825e-08
       O -1.30421e+00  1.20936e-07  7.26172e-08
       S  1.46430e+00 -8.01486e-08 -6.85107e-08
       L  1.61359e-01 -1.46789e-06  1.87453e-06
       L -1.76534e-06 -9.26814e-07 -2.01999e-06
5
# CELL(abcABC):  459.05226   459.05226   459.05226    90.00000    90.00000    90.00000  Step:          28  Bead:       0 x_centroid{angstrom}  cell{atomic_unit}
       C -1.60041e-01  5.47601e-08  8.80850e-08
       O -1.30425e+00  1.25493e-07  7.58743e-08
       S  1.46429e+00 -8.30946e-08 -7.08490e-08
       L  1.60181e-01 -1.10565e-06  1.41190e-06
       L -1.40016e-06 -7.34955e-07 -1.52146e-06
5
# CELL(abcABC):  459.05226   459.05226   459.05226    90.00000    90.00000    90.00000  Step:          29  Bead:       0 x_centroid{angstrom}  cell{atomic_unit}
       C -1.59969e-01  5.65120e-08  8.98646e-08
       O -1.30430e+00  1.30057e-07  7.91853e-08
       S  1.46429e+00 -8.60388e-08 -7.31683e-08
       L  1.59816e-01 -6.96880e-07  8.89859e-07
       L -9.83492e-07 -5.18497e-07 -9.58911e-07
5
# CELL(abcABC):  459.05226   459.05226   459.05226    90.00000    90.00000    90.00000  Step:          30  Bead:       0 x_centroid{angstrom}  cell{atomic_unit}
       C -1.59893e-01  5.82429e-08  9.15201e-08
       O -1.30435e+00  1.34630e-07  8.25508e-08
       S  1.46429e+00 -8.89802e-08 -7.54684e-08
       L  1.60010e-01 -2.58791e-07  3.30375e-07
       L -5.30550e-07 -2.86657e-07 -3.56014e-07
5
# CELL(abcABC):  459.05226   459.05226   459.05226    90.00000    90.00000    90.00000  Step:          31  Bead:       0 x_centroid{angstrom}  cell{atomic_unit}
       C -1.59817e-01  5.99488e-08  9.30504e-08
       O -1.30440e+00  1.39214e-07  8.59715e-08
       S  1.46428e+00 -9.19179e-08 -7.77491e-08
       L  1.60473e-01  1.90186e-07 -2.43012e-07
       L -5.77358e-08 -4.92894e-08  2.61863e-07
5
# CELL(abcABC):  459.05226   459.05226   459.05226    90.00000    90.00000    90.00000  Step:          32  Bead:       0 x_centroid{angstrom}  cell{atomic_unit}
       C -1.59745e-01  6.16259e-08  9.44550e-08
       O -1.30445e+00  1.43810e-07  8.94475e-08
       S  1.46428e+00 -9.48510e-08 -8.00104e-08
       L  1.60903e-01  6.31162e-07 -8.06173e-07
       L  4.17805e-07  1.83534e-07  8.68722e-07
5
# CELL(abcABC):  459.05226   459.05226   459.05226    90.00000    90.00000    90.00000  Step:          33  Bead:       0 x_centroid{angstrom}  cell{atomic_unit}
       C -1.59682e-01  6.32705e-08  9.57335e-08
       O -1.30449e+00  1.48421e-07  9.29793e-08
       S  1.46428e+00 -9.77785e-08 -8.22521e-08
       L  1.61017e-01  1.04558e-06 -1.33541e-06
       L  8.78655e-07  4.01946e-07  1.43903e-06
5
# CELL(abcABC):  459.05226   459.05226   459.05226    90.00000    90.00000    90.00000  Step:          34  Bead:       0 x_centroid{angstrom}  cell{atomic_unit}
       C -1.59630e-01  6.48790e-08  9.68857e-08
       O -1.30452e+00  1.53049e-07  9.65668e-08
       S  1.46428e+00 -1.00700e-07 -8.44743e-08
       L  1.60574e-01  1.41600e-06 -1.80846e-06
       L  1.30762e-06  5.96702e-07  1.94878e-06
5
# CELL(abcABC):  459.05226   459.05226   459.05226    90.00000    90.00000    90.00000  Step:          35  Bead:       0 x_centroid{angstrom}  cell{atomic_unit}
       C -1.59592e-01  6.64485e-08  9.79118e-08
       O -1.30455e+00  1.57695e-07  1.00210e-07
       S  1.46427e+00 -1.03614e-07 -8.66770e-08
       L  1.59398e-01  1.72684e-06 -2.20541e-06
       L  1.68826e-06  7.59567e-07  2.37653e-06
5
# CELL(abcABC):  459.05226   459.05226   459.05226    90.00000    90.00000    90.00000  Step:          36  Bead:       0 x_centroid{angstrom}  cell{atomic_unit}
       C -1.59569e-01  6.79764e-08  9.88122e-08
       O -1.30457e+00  1.62360e-07  1.03909e-07
       S  1.46427e+00 -1.06520e-07 -8.88602e-08
       L  1.57397e-01  1.96502e-06 -2.50956e-06
       L  2.00539e-06  8.83665e-07  2.70428e-06
5
# CELL(abcABC):  459.05226   459.05226   459.05226    90.00000    90.00000    90.00000  Step:          37  Bead:       0 x_centroid{angstrom}  cell{atomic_unit}
       C -1.59564e-01  6.94609e-08  9.95876e-08
       O -1.30457e+00  1.67046e-07  1.07663e-07
       S  1.46427e+00 -1.09418e-07 -9.10240e-08
       L  1.54572e-01  2.12052e-06 -2.70811e-06
       L  2.24566e-06  9.63768e-07  2.91824e-06
5
# CELL(abcABC):  459.05226   459.05226   459.05226    90.00000    90.00000    90.00000  Step:          38  Bead:       0 x_centroid{angstrom}  cell{atomic_unit}
       C -1.59576e-01  7.09009e-08  1.00239e-07
       O -1.30456e+00  1.71753e-07  1.11472e-07
       S  1.46427e+00 -1.12308e-07 -9.31686e-08
       L  1.51019e-01  2.18678e-06 -2.79271e-06
       L  2.39809e-06  9.96516e-07  3.00941e-06
5
# CELL(abcABC):  459.05226   459.05226   459.05226    90.00000    90.00000    90.00000  Step:          39  Bead:       0 x_centroid{angstrom}  cell{atomic_unit}
       C -1.59603e-01  7.22960e-08  1.00767e-07
       O -1.30455e+00  1.76482e-07  1.15335e-07
       S  1.46428e+00 -1.15189e-07 -9.52942e-08
       L  1.46931e-01  2.16104e-06 -2.75980e-06
       L  2.45450e-06  9.80557e-07  2.97394e-06
5
# CELL(abcABC):  459.05226   459.05226   459.05226    90.00000    90.00000    90.00000  Step:          40  Bead:       0 x_centroid{angstrom}  cell{atomic_unit}
       C -1.59644e-01  7.36467e-08  1.01174e-07
       O -1.30452e+00  1.81231e-07  1.19252e-07
       S  1.46428e+00 -1.18062e-07 -9.74008e-08
       L  1.42578e-01  2.04436e-06 -2.61076e-06
       L  2.41005e-06  9.16608e-07  2.81334e-06
5
# CELL(abcABC):  459.05226   459.05226   459.05226    90.00000    90.00000    90.00000  Step:          41  Bead:       0 x_centroid{angstrom}  cell{atomic_unit}
       C -1.59696e-01  7.49543e-08  1.01461e-07
       O -1.30449e+00  1.86001e-07  1.23222e-07
       S  1.46428e+00 -1.20926e-07 -9.94888e-08
       L  1.38295e-01  1.84166e-06 -2.35187e-06
       L  2.26355e-06  8.07422e-07  2.53436e-06
5
# CELL(abcABC):  459.05226   459.05226   459.05226    90.00000    90.00000    90.00000  Step:          42  Bead:       0 x_centroid{angstrom}  cell{atomic_unit}
       C -1.59757e-01  7.62206e-08  1.01630e-07
       O -1.30445e+00  1.90790e-07  1.27244e-07
       S  1.46429e+00 -1.23783e-07 -1.01558e-07
       L  1.34455e-01  1.56147e-06 -1.99401e-06
       L  2.01775e-06  6.57669e-07  2.14874e-06
5
# CELL(abcABC):  459.05226   459.05226   459.05226    90.00000    90.00000    90.00000  Step:          43  Bead:       0 x_centroid{angstrom}  cell{atomic_unit}
       C -1.59822e-01  7.74485e-08  1.01683e-07
       O -1.30441e+00  1.95597e-07  1.31318e-07
       S  1.46429e+00 -1.26632e-07 -1.03610e-07
       L  1.31446e-01  1.21558e-06 -1.55225e-06
       L  1.67947e-06  4.73747e-07  1.67270e-06
5
# CELL(abcABC):  459.05226   459.05226   459.05226    90.00000    90.00000    90.00000  Step:          44  Bead:       0 x_centroid{angstrom}  cell{atomic_unit}
       C -1.59888e-01  7.86411e-08  1.01622e-07
       O -1.30436e+00  2.00421e-07  1.35441e-07
       S  1.46429e+00 -1.29475e-07 -1.05644e-07
       L  1.29635e-01  8.18536e-07 -1.04517e-06
       L  1.25958e-06  2.63506e-07  1.12628e-06
5
# CELL(abcABC):  459.05226   459.05226   459.05226    90.00000    90.00000    90.00000  Step:          45  Bead:       0 x_centroid{angstrom}  cell{atomic_unit}
       C -1.59951e-01  7.98022e-08  1.01450e-07
       O -1.30432e+00  2.05259e-07  1.39613e-07
       S  1.46429e+00 -1.32312e-07 -1.07660e-07
       L  1.29345e-01  3.87051e-07 -4.94111e-07
       L  7.72805e-07  3.59205e-08  5.32461e-07
5
# CELL(abcABC):  459.05226   459.05226   459.05226    90.00000    90.00000    90.00000  Step:          46  Bead:       0 x_centroid{angstrom}  cell{atomic_unit}
       C -1.60008e-01  8.09360e-08  1.01170e-07
       O -1.30428e+00  2.10109e-07  1.43832e-07
       S  1.46430e+00 -1.35145e-07 -1.09660e-07
       L  1.30822e-01 -6.07204e-08  7.77366e-08
       L  2.37369e-07 -1.99291e-07 -8.37576e-08
5
# CELL(abcABC):  459.05226   459.05226   459.05226    90.00000    90.00000    90.00000  Step:          47  Bead:       0 x_centroid{angstrom}  cell{atomic_unit}
       C -1.60056e-01  8.20469e-08  1.00784e-07
       O -1.30425e+00  2.14969e-07  1.48098e-07
       S  1.46430e+00 -1.37975e-07 -1.11643e-07
       L  1.34219e-01 -5.05936e-07  6.46314e-07
       L -3.25586e-07 -4.32073e-07 -6.96452e-07
5
# CELL(abcABC):  459.05226   459.05226   459.05226    90.00000    90.00000    90.00000  Step:          48  Bead:       0 x_centroid{angstrom}  cell{atomic_unit}
       C -1.60093e-01  8.31393e-08  1.00297e-07
       O -1.30422e+00  2.19836e-07  1.52408e-07
       S  1.46430e+00 -1.40802e-07 -1.13610e-07
       L  1.39575e-01 -9.29864e-07  1.18769e-06
       L -8.92722e-07 -6.52459e-07 -1.27984e-06
5
# CELL(abcABC):  459.05226   459.05226   459.05226    90.00000    90.00000    90.00000  Step:          49  Bead:       0 x_centroid{angstrom}  cell{atomic_unit}
       C -1.60118e-01  8.42176e-08  9.97107e-08
       O -1.30420e+00  2.24709e-07  1.56761e-07
       S  1.46430e+00 -1.43627e-07 -1.15562e-07
       L  1.46804e-01 -1.31466e-06  1.67910e-06
       L -1.43940e-06 -8.50992e-07 -1.80938e-06
5
# CELL(abcABC):  459.05226   459.05226   459.05226    90.00000    90.00000    90.00000  Step:          50  Bead:       0 x_centroid{angstrom}  cell{atomic_unit}
       C -1.60129e-01  8.52859e-08  9.90301e-08
       O -1.30419e+00  2.29586e-07  1.61156e-07
       S  1.46429e+00 -1.46452e-07 -1.17499e-07
       L  1.55698e-01 -1.64415e-06  2.09985e-06
       L -1.94072e-06 -1.01912e-06 -2.26278e-06
5
# CELL(abcABC):  459.05226   459.05226   459.05226    90.00000    90.00000    90.00000  Step:          51  Bead:       0 x_centroid{angstrom}  cell{atomic_unit}
       C -1.60127e-01  8.63481e-08  9.82593e-08
       O -1.30418e+00  2.34464e-07  1.65590e-07
       S  1.46429e+00 -1.49277e-07 -1.19423e-07
       L  1.65929e-01 -1.90445e-06  2.43225e-06
       L -2.37258e-06 -1.14957e-06 -2.62096e-06
5
# CELL(abcABC):  459.05226   459.05226   459.05226    90.00000    90.00000    90.00000  Step:          52  Bead:       0 x_centroid{angstrom}  cell{atomic_unit}
       C -1.60114e-01  8.74076e-08  9.74025e-08
       O -1.30419e+00  2.39342e-07  1.70063e-07
       S  1.46429e+00 -1.52103e-07 -1.21333e-07
       L  1.77068e-01 -2.08462e-06  2.66229e-06
       L -2.71290e-06 -1.23663e-06 -2.86887e-06
5
# CELL(abcABC):  459.05226   459.05226   459.05226    90.00000    90.00000    90.00000  Step:          53  Bead:       0 x_centroid{angstrom}  cell{atomic_unit}
       C -1.60092e-01  8.84671e-08  9.64645e-08
       O -1.30420e+00  2.44218e-07  1.74571e-07
       S  1.46428e+00 -1.54931e-07 -1.23231e-07
       L  1.88604e-01 -2.17707e-06  2.78032e-06
       L -2.94269e-06 -1.27643e-06 -2.99605e-06
5
# CELL(abcABC):  459.05226   459.05226   459.05226    90.00000    90.00000    90.00000  Step:          54  Bead:       0 x_centroid{angstrom}  cell{atomic_unit}
       C -1.60062e-01  8.95286e-08  9.54502e-08
       O -1.30421e+00  2.49092e-07  1.79112e-07
       S  1.46428e+00 -1.57760e-07 -1.25117e-07
       L  1.99972e-01 -2.17791e-06  2.78135e-06
       L -3.04713e-06 -1.26706e-06 -2.99717e-06
5
# CELL(abcABC):  459.05226   459.05226   459.05226    90.00000    90.00000    90.00000  Step:          55  Bead:       0 x_centroid{angstrom}  cell{atomic_unit}
       C -1.60027e-01  9.05936e-08  9.43647e-08
       O -1.30423e+00  2.53963e-07  1.83685e-07
       S  1.46428e+00 -1.60592e-07 -1.26992e-07
       L  2.10590e-01 -2.08712e-06  2.66535e-06
       L -3.01650e-06 -1.20869e-06 -2.87217e-06
5
# CELL(abcABC):  459.05226   459.05226   459.05226    90.00000    90.00000    90.00000  Step:          56  Bead:       0 x_centroid{angstrom}  cell{atomic_unit}
       C -1.59991e-01  9.16626e-08  9.32133e-08
       O -1.30425e+00  2.58831e-07  1.88287e-07
       S  1.46427e+00 -1.63426e-07 -1.28857e-07
       L  2.19886e-01 -1.90850e-06  2.43720e-06
       L -2.84688e-06 -1.10356e-06 -2.62632e-06
5
# CELL(abcABC):  459.05226   459.05226   459.05226    90.00000    90.00000    90.00000  Step:          57  Bead:       0 x_centroid{angstrom}  cell{atomic_unit}
       C -1.59956e-01  9.27356e-08  9.20016e-08
       O -1.30427e+00  2.63696e-07  1.92916e-07
       S  1.46427e+00 -1.66263e-07 -1.30713e-07
       L  2.27340e-01 -1.64958e-06  2.10649e-06
       L -2.54064e-06 -9.55854e-07 -2.26995e-06
5
# CELL(abcABC):  459.05226   459.05226   459.05226    90.00000    90.00000    90.00000  Step:          58  Bead:       0 x_centroid{angstrom}  cell{atomic_unit}
       C -1.59925e-01  9.38116e-08  9.07351e-08
       O -1.30429e+00  2.68559e-07  1.97569e-07
       S  1.46427e+00 -1.69101e-07 -1.32561e-07
       L  2.32513e-01 -1.32125e-06  1.68715e-06
       L -2.10667e-06 -7.71576e-07 -1.81807e-06
5
# CELL(abcABC):  459.05226   459.05226   459.05226    90.00000    90.00000    90.00000  Step:          59  Bead:       0 x_centroid{angstrom}  cell{atomic_unit}
       C -1.59901e-01  9.48892e-08  8.94195e-08
       O -1.30431e+00  2.73421e-07  2.02244e-07
       S  1.46427e+00 -1.71940e-07 -1.34402e-07
       L  2.35073e-01 -9.37319e-07  1.19681e-06
       L -1.56019e-06 -5.58256e-07 -1.28969e-06
5
# CELL(abcABC):  459.05226   459.05226   459.05226    90.00000    90.00000    90.00000  Step:          60  Bead:       0 x_centroid{angstrom}  cell{atomic_unit}
       C -1.59884e-01  9.59664e-08  8.80606e-08
       O -1.30432e+00  2.78282e-07  2.06939e-07
       S  1.46427e+00 -1.74780e-07 -1.36236e-07
       L  2.34820e-01 -5.13952e-07  6.56115e-07
       L -9.22379e-07 -3.24653e-07 -7.07042e-07
5
# CELL(abcABC):  459.05226   459.05226   459.05226    90.00000    90.00000    90.00000  Step:          61  Bead:       0 x_centroid{angstrom}  cell{atomic_unit}
       C -1.59875e-01  9.70406e-08  8.66641e-08
       O -1.30433e+00  2.83144e-07  2.11650e-07
       S  1.46427e+00 -1.77621e-07 -1.38064e-07
       L  2.31700e-01 -6.89597e-08  8.78106e-08
       L -2.19578e-07 -8.03843e-08 -9.46423e-08
5
# CELL(abcABC):  459.05226   459.05226   459.05226    90.00000    90.00000    90.00000  Step:          62  Bead:       0 x_centroid{angstrom}  cell{atomic_unit}
       C -1.59876e-01  9.81092e-08  8.52358e-08
       O -1.30433e+00  2.88009e-07  2.16376e-07
       S  1.46427e+00 -1.80460e-07 -1.39888e-07
       L  2.25809e-01  3.78934e-07 -4.84189e-07
       L  5.17763e-07  1.64483e-07  5.21739e-07
5
# CELL(abcABC):  459.05226   459.05226   459.05226    90.00000    90.00000    90.00000  Step:          63  Bead:       0 x_centroid{angstrom}  cell{atomic_unit}
       C -1.59884e-01  9.91693e-08  8.37814e-08
       O -1.30433e+00  2.92879e-07  2.21113e-07
       S  1.46427e+00 -1.83298e-07 -1.41708e-07
       L  2.17391e-01  8.10884e-07 -1.03581e-06
       L  1.25639e-06  3.99853e-07  1.11617e-06
5
# CELL(abcABC):  459.05226   459.05226   459.05226    90.00000    90.00000    90.00000  Step:          64  Bead:       0 x_centroid{angstrom}  cell{atomic_unit}
       C -1.59900e-01  1.00218e-07  8.23068e-08
       O -1.30433e+00  2.97754e-07  2.25860e-07
       S  1.46428e+00 -1.86134e-07 -1.43524e-07
       L  2.06825e-01  1.20871e-06 -1.54385e-06
       L  1.96177e-06  6.16032e-07  1.66363e-06
5
# CELL(abcABC):  459.05226   459.05226   459.05226    90.00000    90.00000    90.00000  Step:          65  Bead:       0 x_centroid{angstrom}  cell{atomic_unit}
       C -1.59920e-01  1.01253e-07  8.08174e-08
       O -1.30432e+00  3.02636e-07  2.30613e-07
       S  1.46428e+00 -1.88967e-07 -1.45338e-07
       L  1.94604e-01  1.55568e-06 -1.98693e-06
       L  2.59972e-06  8.04135e-07  2.14109e-06
5
# CELL(abcABC):  459.05226   459.05226   459.05226    90.00000    90.00000    90.00000  Step:          66  Bead:       0 x_centroid{angstrom}  cell{atomic_unit}
       C -1.59943e-01  1.02271e-07  7.93191e-08
       O -1.30432e+00  3.07527e-07  2.35370e-07
       S  1.46429e+00 -1.91796e-07 -1.47151e-07
       L  1.81309e-01  1.83719e-06 -2.34640e-06
       L  3.13809e-06  9.56462e-07  2.52845e-06
5
# CELL(abcABC):  459.05226   459.05226   459.05226    90.00000    90.00000    90.00000  Step:          67  Bead:       0 x_centroid{angstrom}  cell{atomic_unit}
       C -1.59966e-01  1.03272e-07  7.78174e-08
       O -1.30431e+00  3.12428e-07  2.40129e-07
       S  1.46429e+00 -1.94622e-07 -1.48964e-07
       L  1.67574e-01  2.04140e-06 -2.60714e-06
       L  3.54843e-06  1.06682e-06  2.80943e-06
5
# CELL(abcABC):  459.05226   459.05226   459.05226    90.00000    90.00000    90.00000  Step:          68  Bead:       0 x_centroid{angstrom}  cell{atomic_unit}
       C -1.59987e-01  1.04255e-07  7.63179e-08
       O -1.30430e+00  3.17338e-07  2.44887e-07
       S  1.46430e+00 -1.97443e-07 -1.50777e-07
       L  1.54052e-01  2.15971e-06 -2.75818e-06
       L  3.80750e-06  1.13081e-06  2.97219e-06
5
# CELL(abcABC):  459.05226   459.05226   459.05226    90.00000    90.00000    90.00000  Step:          69  Bead:       0 x_centroid{angstrom}  cell{atomic_unit}
       C -1.60002e-01  1.05218e-07  7.48262e-08
       O -1.30430e+00  3.22259e-07  2.49642e-07
       S  1.46430e+00 -2.00259e-07 -1.52590e-07
       L  1.41380e-01  2.18714e-06 -2.79315e-06
       L  3.89861e-06  1.14597e-06  3.00988e-06
5
# CELL(abcABC):  459.05226   459.05226   459.05226    90.00000    90.00000    90.00000  Step:          70  Bead:       0 x_centroid{angstrom}  cell{atomic_unit}
       C -1.60011e-01  1.06163e-07  7.33480e-08
       O -1.30430e+00  3.27189e-07  2.54391e-07
       S  1.46431e+00 -2.03072e-07 -1.54406e-07
       L  1.30139e-01  2.12254e-06 -2.71060e-06
       L  3.81261e-06  1.11192e-06  2.92092e-06
5
# CELL(abcABC):  459.05226   459.05226   459.05226    90.00000    90.00000    90.00000  Step:          71  Bead:       0 x_centroid{angstrom}  cell{atomic_unit}
       C -1.60011e-01  1.07092e-07  7.18890e-08
       O -1.30431e+00  3.32128e-07  2.59132e-07
       S  1.46431e+00 -2.05880e-07 -1.56225e-07
       L  1.20824e-01  1.96864e-06 -2.51399e-06
       L  3.54860e-06  1.03036e-06  2.70906e-06
5
# CELL(abcABC):  459.05226   459.05226   459.05226    90.00000    90.00000    90.00000  Step:          72  Bead:       0 x_centroid{angstrom}  cell{atomic_unit}
       C -1.60001e-01  1.08007e-07  7.04547e-08
       O -1.30432e+00  3.37074e-07  2.63862e-07
       S  1.46431e+00 -2.08684e-07 -1.58047e-07
       L  1.13819e-01  1.73189e-06 -2.21159e-06
       L  3.11416e-06  9.04997e-07  2.38320e-06
5
# CELL(abcABC):  459.05226   459.05226   459.05226    90.00000    90.00000    90.00000  Step:          73  Bead:       0 x_centroid{angstrom}  cell{atomic_unit}
       C -1.59982e-01  1.08912e-07  6.90511e-08
       O -1.30434e+00  3.42026e-07  2.68578e-07
       S  1.46431e+00 -2.11486e-07 -1.59874e-07
       L  1.09378e-01  1.42228e-06 -1.81613e-06
       L  2.52530e-06  7.41409e-07  1.95707e-06
5
# CELL(abcABC):  459.05226   459.05226   459.05226    90.00000    90.00000    90.00000  Step:          74  Bead:       0 x_centroid{angstrom}  cell{atomic_unit}