8
# CELL(abcABC):  459.05226   459.05226   459.05226    90.00000    90.00000    90.00000  Step:           0  Bead:       0 x_centroid{angstrom}  cell{atomic_unit}
       C -1.59952e-01  7.73417e-15 -3.30660e-15
       O -1.30437e+00 -1.37101e-15  3.69725e-15
       S  1.46432e+00 -6.36316e-15 -3.90655e-16
       C -1.59952e-01  7.73417e-15 -3.30660e-15
       O -1.30437e+00 -1.37101e-15  3.69725e-15
       S  1.46432e+00 -6.36316e-15 -3.90655e-16
       L  1.00000e-01  0.00000e+00  0.00000e+00
       L  0.00000e+00  0.00000e+00  0.00000e+00
8
# CELL(abcABC):  459.05226   459.05226   459.05226    90.00000    90.00000    90.00000  Step:           1  Bead:       0 x_centroid{angstrom}  cell{atomic_unit}
       C -1.59938e-01  8.05343e-10  3.47808e-09
       O -1.30438e+00  2.95671e-09  2.01777e-09
       S  1.46432e+00 -4.41973e-09 -3.01744e-09
       C -1.59938e-01  5.12376e-09 -4.16663e-09
       O -1.30438e+00  3.45468e-09  3.28796e-09
       S  1.46432e+00 -1.00773e-09  6.70778e-10
       L  1.05042e-01 -2.69258e-07 -1.15283e-06
       L -8.33909e-07  7.17030e-07 -1.34558e-06
8
# CELL(abcABC):  459.05226   459.05226   459.05226    90.00000    90.00000    90.00000  Step:           2  Bead:       0 x_centroid{angstrom}  cell{atomic_unit}
       C -1.59897e-01  1.60023e-09  6.95123e-09
       O -1.30440e+00  5.91741e-09  4.03708e-09
       S  1.46431e+00 -8.83741e-09 -6.03470e-09
       C -1.59897e-01  1.02300e-08 -8.31876e-09
       O -1.30440e+00  6.91730e-09  6.56766e-09
       S  1.46431e+00 -2.01265e-09  1.33936e-09
       L  1.19858e-01 -5.27187e-07 -2.25716e-06
       L -1.67735e-06  1.40222e-06 -2.63454e-06
8
# CELL(abcABC):  459.05226   459.05226   459.05226    90.00000    90.00000    90.00000  Step:           3  Bead:       0 x_centroid{angstrom}  cell{atomic_unit}
       C -1.59834e-01  2.37205e-09  1.04140e-08
       O -1.30443e+00  8.88731e-09  6.05958e-09
       S  1.46430e+00 -1.32509e-08 -9.05153e-09
       C -1.59834e-01  1.53017e-08 -1.24449e-08
       O -1.30443e+00  1.03956e-08  9.83335e-09
       S  1.46430e+00 -3.01189e-09  2.00354e-09
       L  1.43537e-01 -7.62932e-07 -3.26651e-06
       L -2.49068e-06  2.02508e-06 -3.81264e-06
8
# CELL(abcABC):  459.05226   459.05226   459.05226    90.00000    90.00000    90.00000  Step:           4  Bead:       0 x_centroid{angstrom}  cell{atomic_unit}
       C -1.59754e-01  3.10356e-09  1.38599e-08
       O -1.30447e+00  1.18727e-08  8.08680e-09
       S  1.46429e+00 -1.76576e-08 -1.20678e-08
       C -1.59754e-01  2.03224e-08 -1.65361e-08
       O -1.30447e+00  1.38975e-08  1.30832e-08
       S  1.46429e+00 -4.00225e-09  2.66084e-09
       L  1.74639e-01 -9.66573e-07 -4.13841e-06
       L -3.23310e-06  2.55777e-06 -4.83032e-06
8
# CELL(abcABC):  459.05226   459.05226   459.05226    90.00000    90.00000    90.00000  Step:           5  Bead:       0 x_centroid{angstrom}  cell{atomic_unit}
       C -1.59666e-01  3.78323e-09  1.72827e-08
       O -1.30451e+00  1.48810e-08  1.01214e-08
       S  1.46428e+00 -2.20559e-08 -1.50821e-08
       C -1.59666e-01  2.52762e-08 -2.05864e-08
       O -1.30451e+00  1.74291e-08  1.63124e-08
       S  1.46428e+00 -4.98147e-09  3.30968e-09
       L  2.11298e-01 -1.12954e-06 -4.83618e-06
       L -3.86485e-06  2.97630e-06 -5.64475e-06
8
# CELL(abcABC):  459.05226   459.05226   459.05226    90.00000    90.00000    90.00000  Step:           6  Bead:       0 x_centroid{angstrom}  cell{atomic_unit}
       C -1.59580e-01  4.40232e-09  2.06753e-08
       O -1.30455e+00  1.79161e-08  1.21661e-08
       S  1.46427e+00 -2.64443e-08 -1.80939e-08
       C -1.59580e-01  3.01491e-08 -2.45855e-08
       O -1.30455e+00  2.09965e-08  1.95161e-08
       S  1.46427e+00 -5.94740e-09  3.94820e-09
       L  2.51363e-01 -1.24498e-06 -5.33045e-06
       L -4.34952e-06  3.26155e-06 -6.22165e-06
8
# CELL(abcABC):  459.05226   459.05226   459.05226    90.00000    90.00000    90.00000  Step:           7  Bead:       0 x_centroid{angstrom}  cell{atomic_unit}
       C -1.59504e-01  4.95457e-09  2.40308e-08
       O -1.30458e+00  2.09809e-08  1.42239e-08
       S  1.46426e+00 -3.08217e-08 -2.11024e-08
       C -1.59504e-01  3.49294e-08 -2.85230e-08
       O -1.30458e+00  2.46049e-08  2.26894e-08
       S  1.46426e+00 -6.89831e-09  4.57467e-09
       L  2.92550e-01 -1.30804e-06 -5.60043e-06
       L -4.65630e-06  3.40007e-06 -6.53677e-06
8
# CELL(abcABC):  459.05226   459.05226   459.05226    90.00000    90.00000    90.00000  Step:           8  Bead:       0 x_centroid{angstrom}  cell{atomic_unit}
       C -1.59448e-01  5.43640e-09  2.73429e-08
       O -1.30460e+00  2.40772e-08  1.62978e-08
       S  1.46424e+00 -3.51875e-08 -2.41069e-08
       C -1.59448e-01  3.96082e-08 -3.23887e-08
       O -1.30460e+00  2.82587e-08  2.58273e-08
       S  1.46424e+00 -7.83297e-09  5.18739e-09
       L  3.32613e-01 -1.31605e-06 -5.63476e-06
       L -4.76202e-06  3.38465e-06 -6.57683e-06
8
# CELL(abcABC):  459.05226   459.05226   459.05226    90.00000    90.00000    90.00000  Step:           9  Bead:       0 x_centroid{angstrom}  cell{atomic_unit}
       C -1.59420e-01  5.84685e-09  3.06060e-08
       O -1.30460e+00  2.72050e-08  1.83911e-08
       S  1.46423e+00 -3.95418e-08 -2.71069e-08
       C -1.59420e-01  4.41809e-08 -3.61726e-08
       O -1.30460e+00  3.19605e-08  2.89252e-08
       S  1.46423e+00 -8.75081e-09  5.78473e-09
       L  3.69496e-01 -1.26869e-06 -5.43199e-06
       L -4.65284e-06  3.21468e-06 -6.34016e-06
8
# CELL(abcABC):  459.05226   459.05226   459.05226    90.00000    90.00000    90.00000  Step:          10  Bead:       0 x_centroid{angstrom}  cell{atomic_unit}
       C -1.59425e-01  6.18778e-09  3.38148e-08
       O -1.30458e+00  3.03636e-08  2.05070e-08
       S  1.46423e+00 -4.38850e-08 -3.01015e-08
       C -1.59425e-01  4.86453e-08 -3.98648e-08
       O -1.30458e+00  3.57122e-08  3.19786e-08
       S  1.46423e+00 -9.65165e-09  6.36518e-09
       L  4.01480e-01 -1.16794e-06 -5.00065e-06
       L -4.32552e-06  2.89610e-06 -5.83670e-06
8
# CELL(abcABC):  459.05226   459.05226   459.05226    90.00000    90.00000    90.00000  Step:          11  Bead:       0 x_centroid{angstrom}  cell{atomic_unit}
       C -1.59466e-01  6.46376e-09  3.69641e-08
       O -1.30454e+00  3.35509e-08  2.26485e-08
       S  1.46422e+00 -4.82180e-08 -3.30898e-08
       C -1.59465e-01  5.30019e-08 -4.34553e-08
       O -1.30454e+00  3.95140e-08  3.49832e-08
       S  1.46422e+00 -1.05358e-08  6.92737e-09
       L  4.27291e-01 -1.01804e-06 -4.35889e-06
       L -3.78800e-06  2.44121e-06 -5.08765e-06
8
# CELL(abcABC):  459.05226   459.05226   459.05226    90.00000    90.00000    90.00000  Step:          12  Bead:       0 x_centroid{angstrom}  cell{atomic_unit}
       C -1.59543e-01  6.68177e-09  4.00490e-08
       O -1.30449e+00  3.67635e-08  2.48185e-08
       S  1.46422e+00 -5.25421e-08 -3.60710e-08
       C -1.59543e-01  5.72538e-08 -4.69347e-08
       O -1.30449e+00  4.33649e-08  3.79349e-08
       S  1.46422e+00 -1.14039e-08  7.47017e-09
       L  4.46176e-01 -8.25313e-07 -3.53373e-06
       L -3.05946e-06  1.86812e-06 -4.12452e-06
8
# CELL(abcABC):  459.05226   459.05226   459.05226    90.00000    90.00000    90.00000  Step:          13  Bead:       0 x_centroid{angstrom}  cell{atomic_unit}
       C -1.59653e-01  6.85090e-09  4.30648e-08
       O -1.30441e+00  3.99976e-08  2.70198e-08
       S  1.46422e+00 -5.68587e-08 -3.90438e-08
       C -1.59653e-01  6.14065e-08 -5.02937e-08
       O -1.30441e+00  4.72625e-08  4.08302e-08
       S  1.46422e+00 -1.22568e-08  7.99250e-09
       L  4.57936e-01 -5.97855e-07 -2.55987e-06
       L -2.16966e-06  1.19999e-06 -2.98784e-06
8
# CELL(abcABC):  459.05226   459.05226   459.05226    90.00000    90.00000    90.00000  Step:          14  Bead:       0 x_centroid{angstrom}  cell{atomic_unit}
       C -1.59792e-01  6.98189e-09  4.60073e-08
       O -1.30431e+00  4.32483e-08  2.92522e-08
       S  1.46423e+00 -6.11697e-08 -4.20068e-08
       C -1.59792e-01  6.54671e-08 -5.35227e-08
       O -1.30431e+00  5.12035e-08  4.36661e-08
       S  1.46423e+00 -1.30959e-08  8.49379e-09
       L  4.62909e-01 -3.45240e-07 -1.47830e-06
       L -1.15758e-06  4.64028e-07 -1.72544e-06
8
# CELL(abcABC):  459.05226   459.05226   459.05226    90.00000    90.00000    90.00000  Step:          15  Bead:       0 x_centroid{angstrom}  cell{atomic_unit}
       C -1.59950e-01  7.08697e-09  4.88723e-08
       O -1.30421e+00  4.65107e-08  3.15184e-08
       S  1.46424e+00 -6.54766e-08 -4.49586e-08
       C -1.59950e-01  6.94446e-08 -5.66131e-08
       O -1.30421e+00  5.51816e-08  4.64396e-08
       S  1.46424e+00 -1.39221e-08  8.97312e-09
       L  4.61920e-01 -7.80985e-08 -3.34526e-07
       L -6.95675e-08 -3.09628e-07 -3.90439e-07
8
# CELL(abcABC):  459.05226   459.05226   459.05226    90.00000    90.00000    90.00000  Step:          16  Bead:       0 x_centroid{angstrom}  cell{atomic_unit}
       C -1.60118e-01  7.17859e-09  5.16554e-08
       O -1.30410e+00  4.97793e-08  3.38208e-08
       S  1.46425e+00 -6.97816e-08 -4.78981e-08
       C -1.60118e-01  7.33482e-08 -5.95565e-08
       O -1.30410e+00  5.91925e-08  4.91480e-08
       S  1.46425e+00 -1.47371e-08  9.42965e-09
       L  4.56182e-01  1.92329e-07  8.23325e-07
       L  1.04306e-06 -1.08922e-06  9.60993e-07
8
# CELL(abcABC):  459.05226   459.05226   459.05226    90.00000    90.00000    90.00000  Step:          17  Bead:       0 x_centroid{angstrom}  cell{atomic_unit}
       C -1.60284e-01  7.26927e-09  5.43525e-08
       O -1.30400e+00  5.30486e-08  3.61618e-08
       S  1.46426e+00 -7.40867e-08 -5.08240e-08
       C -1.60284e-01  7.71875e-08 -6.23452e-08
       O -1.30400e+00  6.32319e-08  5.17886e-08
       S  1.46426e+00 -1.55423e-08  9.86257e-09
       L  4.47173e-01  4.54665e-07  1.94653e-06
       L  2.12672e-06 -1.84270e-06  2.27199e-06
8
# CELL(abcABC):  459.05226   459.05226   459.05226    90.00000    90.00000    90.00000  Step:          18  Bead:       0 x_centroid{angstrom}  cell{atomic_unit}
       C -1.60439e-01  7.37099e-09  5.69596e-08
       O -1.30391e+00  5.63130e-08  3.85436e-08
       S  1.46427e+00 -7.83939e-08 -5.37351e-08
       C -1.60438e-01  8.09717e-08 -6.49714e-08
       O -1.30391e+00  6.72955e-08  5.43593e-08
       S  1.46427e+00 -1.63392e-08  1.02711e-08
       L  4.36496e-01  6.97868e-07  2.98783e-06
       L  3.12852e-06 -2.53909e-06  3.48738e-06
8
# CELL(abcABC):  459.05226   459.05226   459.05226    90.00000    90.00000    90.00000  Step:          19  Bead:       0 x_centroid{angstrom}  cell{atomic_unit}
       C -1.60569e-01  7.49475e-09  5.94730e-08
       O -1.30383e+00  5.95679e-08  4.09683e-08
       S  1.46428e+00 -8.27050e-08 -5.66301e-08
       C -1.60569e-01  8.47091e-08 -6.74281e-08
       O -1.30383e+00  7.13794e-08  5.68579e-08
       S  1.46428e+00 -1.71292e-08  1.06545e-08
       L  4.25726e-01  9.11706e-07  3.90341e-06
       L  3.99910e-06 -3.14980e-06  4.55604e-06
8
# CELL(abcABC):  459.05226   459.05226   459.05226    90.00000    90.00000    90.00000  Step:          20  Bead:       0 x_centroid{angstrom}  cell{atomic_unit}
       C -1.60668e-01  7.65008e-09  6.18889e-08
       O -1.30377e+00  6.28090e-08  4.34380e-08
       S  1.46429e+00 -8.70217e-08 -5.95080e-08
       C -1.60668e-01  8.84068e-08 -6.97087e-08
       O -1.30377e+00  7.54804e-08  5.92822e-08
       S  1.46429e+00 -1.79136e-08  1.10120e-08
       L  4.16267e-01  1.08718e-06  4.65474e-06
       L  4.69541e-06 -3.64983e-06  5.43298e-06
8
# CELL(abcABC):  459.05226   459.05226   459.05226    90.00000    90.00000    90.00000  Step:          21  Bead:       0 x_centroid{angstrom}  cell{atomic_unit}
       C -1.60727e-01  7.84462e-09  6.42037e-08
       O -1.30374e+00  6.60329e-08  4.59546e-08
       S  1.46429e+00 -9.13452e-08 -6.23678e-08
       C -1.60727e-01  9.20700e-08 -7.18066e-08
       O -1.30374e+00  7.95961e-08  6.16301e-08
       S  1.46429e+00 -1.86930e-08  1.13428e-08
       L  4.09227e-01  1.21691e-06  5.21022e-06
       L  5.18311e-06 -4.01882e-06  6.08132e-06
8
# CELL(abcABC):  459.05226   459.05226   459.05226    90.00000    90.00000    90.00000  Step:          22  Bead:       0 x_centroid{angstrom}  cell{atomic_unit}
       C -1.60742e-01  8.08385e-09  6.64143e-08
       O -1.30374e+00  6.92371e-08  4.85196e-08
       S  1.46430e+00 -9.56764e-08 -6.52087e-08
       C -1.60742e-01  9.57019e-08 -7.37159e-08
       O -1.30374e+00  8.37249e-08  6.38995e-08
       S  1.46430e+00 -1.94681e-08  1.16462e-08
       L  4.05319e-01  1.29543e-06  5.54645e-06
       L  5.43842e-06 -4.24192e-06  6.47377e-06
8
# CELL(abcABC):  459.05226   459.05226   459.05226    90.00000    90.00000    90.00000  Step:          23  Bead:       0 x_centroid{angstrom}  cell{atomic_unit}
       C -1.60712e-01  8.37082e-09  6.85174e-08
       O -1.30376e+00  7.24203e-08  5.11348e-08
       S  1.46430e+00 -1.00016e-07 -6.80301e-08
       C -1.60712e-01  9.93033e-08 -7.54310e-08
       O -1.30376e+00  8.78665e-08  6.60883e-08
       S  1.46430e+00 -2.02389e-08  1.19215e-08
       L  4.04800e-01  1.31944e-06  5.64931e-06
       L  5.44941e-06 -4.31041e-06  6.59382e-06
8
# CELL(abcABC):  459.05226   459.05226   459.05226    90.00000    90.00000    90.00000  Step:          24  Bead:       0 x_centroid{angstrom}  cell{atomic_unit}
       C -1.60639e-01  8.70607e-09  7.05103e-08
       O -1.30382e+00  7.55823e-08  5.38013e-08
       S  1.46430e+00 -1.04364e-07 -7.08314e-08
       C -1.60639e-01  1.02873e-07 -7.69465e-08
       O -1.30382e+00  9.20215e-08  6.81941e-08
       S  1.46430e+00 -2.10054e-08  1.21679e-08
       L  4.07453e-01  1.28794e-06  5.51445e-06
       L  5.21662e-06 -4.22209e-06  6.43641e-06
8
# CELL(abcABC):  459.05226   459.05226   459.05226    90.00000    90.00000    90.00000  Step:          25  Bead:       0 x_centroid{angstrom}  cell{atomic_unit}
       C -1.60528e-01  9.08758e-09  7.23901e-08
       O -1.30390e+00  7.87240e-08  5.65204e-08
       S  1.46430e+00 -1.08720e-07 -7.36123e-08
       C -1.60528e-01  1.06406e-07 -7.82575e-08
       O -1.30390e+00  9.61918e-08  7.02145e-08
       S  1.46430e+00 -2.17668e-08  1.23846e-08
       L  4.12609e-01  1.20223e-06  5.14756e-06
       L  4.75290e-06 -3.98133e-06  6.00817e-06
8
# CELL(abcABC):  459.05226   459.05226   459.05226    90.00000    90.00000    90.00000  Step:          26  Bead:       0 x_centroid{angstrom}  cell{atomic_unit}
       C -1.60387e-01  9.51085e-09  7.41546e-08
       O -1.30400e+00  8.18474e-08  5.92930e-08
       S  1.46429e+00 -1.13083e-07 -7.63728e-08
       C -1.60387e-01  1.09896e-07 -7.93593e-08
       O -1.30400e+00  1.00381e-07  7.21469e-08
       S  1.46429e+00 -2.25221e-08  1.25708e-08
       L  4.19212e-01  1.06594e-06  4.56407e-06
       L  4.08258e-06 -3.59891e-06  5.32712e-06
8
# CELL(abcABC):  459.05226   459.05226   459.05226    90.00000    90.00000    90.00000  Step:          27  Bead:       0 x_centroid{angstrom}  cell{atomic_unit}
       C -1.60226e-01  9.96909e-09  7.58015e-08
       O -1.30411e+00  8.49554e-08  6.21200e-08
       S  1.46429e+00 -1.17452e-07 -7.91128e-08
       C -1.60225e-01  1.13334e-07 -8.02477e-08
       O -1.30411e+00  1.04592e-07  7.39889e-08
       S  1.46429e+00 -2.32699e-08  1.27258e-08
       L  4.25922e-01  8.84799e-07  3.78854e-06
       L  3.23999e-06 -3.09155e-06  4.42192e-06
8
# CELL(abcABC):  459.05226   459.05226   459.05226    90.00000    90.00000    90.00000  Step:          28  Bead:       0 x_centroid{angstrom}  cell{atomic_unit}
       C -1.60054e-01  1.04535e-08  7.73290e-08
       O -1.30423e+00  8.80521e-08  6.50020e-08
       S  1.46428e+00 -1.21826e-07 -8.18325e-08
       C -1.60054e-01  1.16711e-07 -8.09189e-08
       O -1.30423e+00  1.08830e-07  7.57379e-08
       S  1.46428e+00 -2.40086e-08  1.28488e-08
       L  4.31240e-01  6.66424e-07  2.85359e-06
       L  2.26742e-06 -2.48122e-06  3.33066e-06
8
# CELL(abcABC):  459.05226   459.05226   459.05226    90.00000    90.00000    90.00000  Step:          29  Bead:       0 x_centroid{angstrom}  cell{atomic_unit}
       C -1.59885e-01  1.09534e-08  7.87354e-08
       O -1.30435e+00  9.11420e-08  6.79393e-08
       S  1.46428e+00 -1.26203e-07 -8.45322e-08
       C -1.59885e-01  1.20013e-07 -8.13697e-08
       O -1.30435e+00  1.13101e-07  7.73914e-08
       S  1.46428e+00 -2.47363e-08  1.29391e-08
       L  4.33652e-01  4.20007e-07  1.79857e-06
       L  1.21270e-06 -1.79418e-06  2.09924e-06
8
# CELL(abcABC):  459.05226   459.05226   459.05226    90.00000    90.00000    90.00000  Step:          30  Bead:       0 x_centroid{angstrom}  cell{atomic_unit}
       C -1.59729e-01  1.14572e-08  8.00193e-08
       O -1.30446e+00  9.42305e-08  7.09322e-08
       S  1.46428e+00 -1.30581e-07 -8.72122e-08
       C -1.59729e-01  1.23228e-07 -8.15972e-08
       O -1.30446e+00  1.17411e-07  7.89472e-08
       S  1.46428e+00 -2.54508e-08  1.29958e-08
       L  4.31780e-01  1.55917e-07  6.67869e-07
       L  1.26522e-07 -1.05989e-06  7.79500e-07
8
# CELL(abcABC):  459.05226   459.05226   459.05226    90.00000    90.00000    90.00000  Step:          31  Bead:       0 x_centroid{angstrom}  cell{atomic_unit}
       C -1.59596e-01  1.19520e-08  8.11795e-08
       O -1.30456e+00  9.73231e-08  7.39807e-08
       S  1.46428e+00 -1.34957e-07 -8.98731e-08
       C -1.59596e-01  1.26340e-07 -8.15992e-08
       O -1.30456e+00  1.21767e-07  8.04032e-08
       S  1.46428e+00 -2.61499e-08  1.30184e-08
       L  4.24515e-01 -1.14734e-07 -4.90934e-07
       L -9.40362e-07 -3.09773e-07 -5.73044e-07
8
# CELL(abcABC):  459.05226   459.05226   459.05226    90.00000    90.00000    90.00000  Step:          32  Bead:       0 x_centroid{angstrom}  cell{atomic_unit}
       C -1.59493e-01  1.24250e-08  8.22149e-08
       O -1.30464e+00  1.00426e-07  7.70847e-08
       S  1.46428e+00 -1.39331e-07 -9.25152e-08
       C -1.59493e-01  1.29338e-07 -8.13742e-08
       O -1.30464e+00  1.26174e-07  8.17577e-08
       S  1.46428e+00 -2.68314e-08  1.30060e-08
       L  4.11142e-01 -3.80557e-07 -1.62908e-06
       L -1.93979e-06  4.24152e-07 -1.90148e-06
8
# CELL(abcABC):  459.05226   459.05226   459.05226    90.00000    90.00000    90.00000  Step:          33  Bead:       0 x_centroid{angstrom}  cell{atomic_unit}
       C -1.59426e-01  1.28632e-08  8.31247e-08
       O -1.30470e+00  1.03544e-07  8.02440e-08
       S  1.46429e+00 -1.43699e-07 -9.51390e-08
       C -1.59426e-01  1.32205e-07 -8.09209e-08
       O -1.30470e+00  1.30639e-07  8.30092e-08
       S  1.46429e+00 -2.74930e-08  1.29581e-08
       L  3.91421e-01 -6.30367e-07 -2.69868e-06
       L -2.82861e-06  1.11060e-06 -3.14990e-06
8
# CELL(abcABC):  459.05226   459.05226   459.05226    90.00000    90.00000    90.00000  Step:          34  Bead:       0 x_centroid{angstrom}  cell{atomic_unit}
       C -1.59397e-01  1.32546e-08  8.39082e-08
       O -1.30474e+00  1.06683e-07  8.34581e-08
       S  1.46430e+00 -1.48059e-07 -9.77449e-08
       C -1.59397e-01  1.34931e-07 -8.02392e-08
       O -1.30474e+00  1.35168e-07  8.41571e-08
       S  1.46430e+00 -2.81327e-08  1.28742e-08
       L  3.65641e-01 -8.53652e-07 -3.65472e-06
       L -3.57074e-06  1.72034e-06 -4.26578e-06
8
# CELL(abcABC):  459.05226   459.05226   459.05226    90.00000    90.00000    90.00000  Step:          35  Bead:       0 x_centroid{angstrom}  cell{atomic_unit}
       C -1.59406e-01  1.35881e-08  8.45650e-08
       O -1.30476e+00  1.09848e-07  8.67266e-08
       S  1.46431e+00 -1.52410e-07 -1.00333e-07
       C -1.59405e-01  1.37505e-07 -7.93293e-08
       O -1.30476e+00  1.39765e-07  8.52007e-08
       S  1.46431e+00 -2.87486e-08  1.27539e-08
       L  3.34623e-01 -1.04102e-06 -4.45698e-06
       L -4.13871e-06  2.22745e-06 -5.20217e-06
8
# CELL(abcABC):  459.05226   459.05226   459.05226    90.00000    90.00000    90.00000  Step:          36  Bead:       0 x_centroid{angstrom}  cell{atomic_unit}
       C -1.59448e-01  1.38543e-08  8.50948e-08
       O -1.30475e+00  1.13042e-07  9.00490e-08
       S  1.46432e+00 -1.56750e-07 -1.02904e-07
       C -1.59448e-01  1.39916e-07 -7.81921e-08
       O -1.30475e+00  1.44434e-07  8.61401e-08
       S  1.46432e+00 -2.93391e-08  1.25969e-08
       L  2.99682e-01 -1.18458e-06 -5.07170e-06
       L -4.51462e-06  2.61043e-06 -5.91966e-06
8
# CELL(abcABC):  459.05226   459.05226   459.05226    90.00000    90.00000    90.00000  Step:          37  Bead:       0 x_centroid{angstrom}  cell{atomic_unit}
       C -1.59518e-01  1.40461e-08  8.54975e-08
       O -1.30473e+00  1.16270e-07  9.34246e-08
       S  1.46433e+00 -1.61078e-07 -1.05458e-07
       C -1.59518e-01  1.42158e-07 -7.68291e-08
       O -1.30473e+00  1.49178e-07  8.69760e-08
       S  1.46433e+00 -2.99031e-08  1.24029e-08
       L  2.62548e-01 -1.27829e-06 -5.47302e-06
       L -4.69055e-06  2.85307e-06 -6.38806e-06
8
# CELL(abcABC):  459.05226   459.05226   459.05226    90.00000    90.00000    90.00000  Step:          38  Bead:       0 x_centroid{angstrom}  cell{atomic_unit}
       C -1.59608e-01  1.41583e-08  8.57733e-08
       O -1.30469e+00  1.19532e-07  9.68529e-08
       S  1.46435e+00 -1.65392e-07 -1.07995e-07
       C -1.59607e-01  1.44228e-07 -7.52423e-08
       O -1.30469e+00  1.53998e-07  8.77092e-08
       S  1.46435e+00 -3.04397e-08  1.21721e-08
       L  2.25248e-01 -1.31822e-06 -5.64404e-06
       L -4.66835e-06  2.94520e-06 -6.58767e-06
8
# CELL(abcABC):  459.05226   459.05226   459.05226    90.00000    90.00000    90.00000  Step:          39  Bead:       0 x_centroid{angstrom}  cell{atomic_unit}
       C -1.59708e-01  1.41886e-08  8.59226e-08
       O -1.30464e+00  1.22831e-07  1.00333e-07
       S  1.46436e+00 -1.69693e-07 -1.10515e-07
       C -1.59707e-01  1.46124e-07 -7.34342e-08
       O -1.30464e+00  1.58895e-07  8.83412e-08
       S  1.46436e+00 -3.09486e-08  1.19046e-08
       L  1.89962e-01 -1.30268e-06 -5.57758e-06
       L -4.45892e-06  2.88305e-06 -6.51008e-06
8
# CELL(abcABC):  459.05226   459.05226   459.05226    90.00000    90.00000    90.00000  Step:          40  Bead:       0 x_centroid{angstrom}  cell{atomic_unit}
       C -1.59808e-01  1.41374e-08  8.59461e-08
       O -1.30459e+00  1.26165e-07  1.03865e-07
       S  1.46438e+00 -1.73980e-07 -1.13018e-07
       C -1.59808e-01  1.47847e-07 -7.14080e-08
       O -1.30459e+00  1.63868e-07  8.88736e-08
       S  1.46438e+00 -3.14299e-08  1.16008e-08
       L  1.58868e-01 -1.23232e-06 -5.27642e-06
       L -4.08100e-06  2.66952e-06 -6.15857e-06
8
# CELL(abcABC):  459.05226   459.05226   459.05226    90.00000    90.00000    90.00000  Step:          41  Bead:       0 x_centroid{angstrom}  cell{atomic_unit}
       C -1.59899e-01  1.40078e-08  8.58452e-08
       O -1.30455e+00  1.29532e-07  1.07447e-07
       S  1.46439e+00 -1.78254e-07 -1.15504e-07
       C -1.59899e-01  1.49404e-07 -6.91670e-08
       O -1.30454e+00  1.68914e-07  8.93086e-08
       S  1.46439e+00 -3.18843e-08  1.12612e-08
       L  1.33978e-01 -1.11011e-06 -4.75324e-06
       L -3.55969e-06  2.31394e-06 -5.54791e-06
8
# CELL(abcABC):  459.05226   459.05226   459.05226    90.00000    90.00000    90.00000  Step:          42  Bead:       0 x_centroid{angstrom}  cell{atomic_unit}
       C -1.59973e-01  1.38057e-08  8.56212e-08
       O -1.30450e+00  1.32932e-07  1.11080e-07
       S  1.46439e+00 -1.82516e-07 -1.17972e-07
       C -1.59973e-01  1.50800e-07 -6.67150e-08
       O -1.30450e+00  1.74029e-07  8.96484e-08
       S  1.46440e+00 -3.23131e-08  1.08866e-08
       L  1.16985e-01 -9.41186e-07 -4.03006e-06
       L -2.92465e-06  1.83177e-06 -4.70381e-06
8
# CELL(abcABC):  459.05226   459.05226   459.05226    90.00000    90.00000    90.00000  Step:          43  Bead:       0 x_centroid{angstrom}  cell{atomic_unit}
       C -1.60024e-01  1.35394e-08  8.52763e-08
       O -1.30447e+00  1.36358e-07  1.14762e-07
       S  1.46440e+00 -1.86767e-07 -1.20424e-07
       C -1.60024e-01  1.52048e-07 -6.40562e-08
       O -1.30447e+00  1.79209e-07  8.98954e-08
       S  1.46440e+00 -3.27177e-08  1.04779e-08
       L  1.09133e-01 -7.32659e-07 -3.13730e-06
       L -2.20828e-06  1.24393e-06 -3.66179e-06
8
# CELL(abcABC):  459.05226   459.05226   459.05226    90.00000    90.00000    90.00000  Step:          44  Bead:       0 x_centroid{angstrom}  cell{atomic_unit}
       C -1.60047e-01  1.32194e-08  8.48130e-08
       O -1.30446e+00  1.39808e-07  1.18492e-07
       S  1.46440e+00 -1.91009e-07 -1.22858e-07
       C -1.60047e-01  1.53159e-07 -6.11948e-08
       O -1.30446e+00  1.84449e-07  9.00522e-08
       S  1.46440e+00 -3.31002e-08  1.00362e-08
       L  1.11119e-01 -4.93302e-07 -2.11253e-06
       L -1.44390e-06  5.75880e-07 -2.46568e-06
8
# CELL(abcABC):  459.05226   459.05226   459.05226    90.00000    90.00000    90.00000  Step:          45  Bead:       0 x_centroid{angstrom}  cell{atomic_unit}
       C -1.60041e-01  1.28583e-08  8.42344e-08
       O -1.30445e+00  1.43274e-07  1.22271e-07
       S  1.46440e+00 -1.95244e-07 -1.25275e-07
       C -1.60041e-01  1.54148e-07 -5.81356e-08
       O -1.30445e+00  1.89741e-07  9.01215e-08
       S  1.46440e+00 -3.34630e-08  9.56281e-09
       L  1.23035e-01 -2.33188e-07 -9.98869e-07
       L -6.64110e-07 -1.43432e-07 -1.16583e-06
8
# CELL(abcABC):  459.05226   459.05226   459.05226    90.00000    90.00000    90.00000  Step:          46  Bead:       0 x_centroid{angstrom}  cell{atomic_unit}
       C -1.60008e-01  1.24697e-08  8.35441e-08
       O -1.30446e+00  1.46752e-07  1.26097e-07
       S  1.46439e+00 -1.99473e-07 -1.27675e-07
       C -1.60008e-01  1.55031e-07 -5.48834e-08
       O -1.30446e+00  1.95079e-07  9.01061e-08
       S  1.46439e+00 -3.38087e-08  9.05895e-09
       L  1.44354e-01  3.67381e-08  1.56821e-07
       L  1.00691e-07 -8.82799e-07  1.83086e-07
8
# CELL(abcABC):  459.05226   459.05226   459.05226    90.00000    90.00000    90.00000  Step:          47  Bead:       0 x_centroid{angstrom}  cell{atomic_unit}
       C -1.59953e-01  1.20680e-08  8.27462e-08
       O -1.30449e+00  1.50235e-07  1.29969e-07
       S  1.46438e+00 -2.03701e-07 -1.30057e-07
       C -1.59952e-01  1.55825e-07 -5.14436e-08
       O -1.30449e+00  2.00455e-07  9.00088e-08
       S  1.46438e+00 -3.41402e-08  8.52609e-09
       L  1.73966e-01  3.05119e-07  1.30591e-06
       L  8.23396e-07 -1.61009e-06  1.52429e-06
8
# CELL(abcABC):  459.05226   459.05226   459.05226    90.00000    90.00000    90.00000  Step:          48  Bead:       0 x_centroid{angstrom}  cell{atomic_unit}
       C -1.59880e-01  1.16680e-08  8.18453e-08
       O -1.30451e+00  1.53715e-07  1.33886e-07
       S  1.46436e+00 -2.07928e-07 -1.32423e-07
       C -1.59880e-01  1.56546e-07 -4.78217e-08
       O -1.30451e+00  2.05862e-07  8.98326e-08
       S  1.46436e+00 -3.44603e-08  7.96569e-09
       L  2.10250e-01  5.60660e-07  2.40005e-06
       L  1.48099e-06 -2.29361e-06  2.80136e-06
8
# CELL(abcABC):  459.05226   459.05226   459.05226    90.00000    90.00000    90.00000  Step:          49  Bead:       0 x_centroid{angstrom}  cell{atomic_unit}
       C -1.59799e-01  1.12837e-08  8.08463e-08
       O -1.30454e+00  1.57188e-07  1.37846e-07
       S  1.46435e+00 -2.12158e-07 -1.34772e-07
       C -1.59799e-01  1.57212e-07 -4.40237e-08
       O -1.30454e+00  2.11292e-07  8.95803e-08
       S  1.46435e+00 -3.47717e-08  7.37925e-09
       L  2.51193e-01  7.92610e-07  3.39321e-06
       L  2.05500e-06 -2.90347e-06  3.96056e-06
8
# CELL(abcABC):  459.05226   459.05226   459.05226    90.00000    90.00000    90.00000  Step:          50  Bead:       0 x_centroid{angstrom}  cell{atomic_unit}
       C -1.59719e-01  1.09283e-08  7.97547e-08
       O -1.30457e+00  1.60648e-07  1.41850e-07
       S  1.46433e+00 -2.16393e-07 -1.37105e-07
       C -1.59719e-01  1.57837e-07 -4.00558e-08
       O -1.30457e+00  2.16740e-07  8.92554e-08
       S  1.46433e+00 -3.50772e-08  6.76810e-09
       L  2.94529e-01  9.91208e-07  4.24358e-06
       L  2.53161e-06 -3.41285e-06  4.95310e-06
8
# CELL(abcABC):  459.05226   459.05226   459.05226    90.00000    90.00000    90.00000  Step:          51  Bead:       0 x_centroid{angstrom}  cell{atomic_unit}
       C -1.59650e-01  1.06132e-08  7.85759e-08
       O -1.30459e+00  1.64089e-07  1.45894e-07
       S  1.46432e+00 -2.20634e-07 -1.39423e-07
       C -1.59649e-01  1.58436e-07 -3.59249e-08
       O -1.30459e+00  2.22199e-07  8.88608e-08
       S  1.46432e+00 -3.53791e-08  6.13391e-09
       L  3.37904e-01  1.14810e-06  4.91540e-06
       L  2.90152e-06 -3.79915e-06  5.73723e-06
8
# CELL(abcABC):  459.05226   459.05226   459.05226    90.00000    90.00000    90.00000  Step:          52  Bead:       0 x_centroid{angstrom}  cell{atomic_unit}
       C -1.59599e-01  1.03476e-08  7.73155e-08
       O -1.30460e+00  1.67508e-07  1.49977e-07
       S  1.46430e+00 -2.24884e-07 -1.41725e-07
       C -1.59599e-01  1.59021e-07 -3.16382e-08
       O -1.30460e+00  2.27664e-07  8.84000e-08
       S  1.46430e+00 -3.56794e-08  5.47819e-09
       L  3.79040e-01  1.25668e-06  5.38038e-06
       L  3.15956e-06 -4.04496e-06  6.27994e-06
8
# CELL(abcABC):  459.05226   459.05226   459.05226    90.00000    90.00000    90.00000  Step:          53  Bead:       0 x_centroid{angstrom}  cell{atomic_unit}
       C -1.59574e-01  1.01380e-08  7.59791e-08
       O -1.30460e+00  1.70901e-07  1.54097e-07
       S  1.46429e+00 -2.29142e-07 -1.44013e-07
       C -1.59574e-01  1.59601e-07 -2.72036e-08
       O -1.30460e+00  2.33131e-07  8.78766e-08
       S  1.46429e+00 -3.59798e-08  4.80238e-09
       L  4.15893e-01  1.31238e-06  5.61897e-06
       L  3.30421e-06 -4.13882e-06  6.55841e-06
8
# CELL(abcABC):  459.05226   459.05226   459.05226    90.00000    90.00000    90.00000  Step:          54  Bead:       0 x_centroid{angstrom}  cell{atomic_unit}
       C -1.59581e-01  9.98799e-09  7.45723e-08
       O -1.30457e+00  1.74269e-07  1.58252e-07
       S  1.46428e+00 -2.33411e-07 -1.46288e-07
       C -1.59581e-01  1.60184e-07 -2.26294e-08
       O -1.30457e+00  2.38596e-07  8.72943e-08
       S  1.46428e+00 -3.62815e-08  4.10789e-09